18
 energy: -30.493692847818 gnorm: 0.031080256537 xtb: 6.4.0 (d4b70c2)
O        -1.73521801800000   -1.13083385400000    0.32487853400000
H        -1.54501801800000   -1.25583385400000   -0.62092146600000
H        -1.84191801800000   -0.15413385400000    0.35947853400000
O        -1.43631801800000    1.61886614600000   -0.08302146600000
H        -1.17431801800000    1.32596614600000   -0.97352146600000
H        -0.58621801800000    1.75866614600000    0.37227853400000
O        -0.54571801800000   -0.22923385400000   -2.18532146600000
H        -0.48351801800000   -0.31643385400000   -3.14412146600000
H         0.38158198200000   -0.29733385400000   -1.85512146600000
O         1.87418198200000   -0.38073385400000   -0.90452146600000
H         1.98418198200000    0.47796614600000   -0.46422146600000
H         1.65288198200000   -0.95933385400000   -0.15152146600000
O         0.63868198200000   -1.29043385400000    1.52137853400000
H        -0.28361801800000   -1.33203385400000    1.14077853400000
H         0.67688198200000   -1.97713385400000    2.19787853400000
O         1.12828198200000    1.42786614600000    1.29217853400000
H         1.43688198200000    1.95886614600000    2.03657853400000
H         0.99038198200000    0.52476614600000    1.64897853400000
18
 energy: -30.470459022457 gnorm: 0.098552344956 xtb: 6.4.0 (d4b70c2)
O        -1.68785683746751   -1.10087625073413    0.27845978997784
H        -1.30246437681867   -0.89072525971366   -0.61451836015233
H        -2.03832695173915   -0.26133661615630    0.61199284744958
O        -1.39390039578134    1.63489697125669   -0.08661538197285
H        -0.84593982479943    1.49390330683768   -0.83404380177943
H        -0.85036881427443    1.96486841370854    0.61765736582270
O        -0.59557062919083   -0.29086368414461   -2.15309558032837
H        -0.43090991141943   -0.66491825851121   -2.99193676165021
H         0.28522789578876   -0.05531969641048   -1.75420986179946
O         1.83965011312097   -0.37657642716102   -0.88041471359836
H         2.19719301126232    0.18813732649405   -0.20000463523903
H         1.87146748844691   -1.24567792012372   -0.49360385590741
O         0.65440672455788   -1.29230784228012    1.45298076767981
H        -0.10136676695603   -1.36262693461486    0.90373581599644
H         0.52872726733249   -1.89750333303625    2.14111044418446
O         1.10299732481868    1.43553412905300    1.32154536544290
H         1.17559625563236    2.22211925580660    1.82946781456606
H         0.72286388513420    0.73289477716930    1.85425123968634
18
 energy: -30.453674880746 gnorm: 0.157714176843 xtb: 6.4.0 (d4b70c2)
O        -1.63474330731449   -1.07719499972950    0.22420954988944
H        -1.36101580781757   -0.57261328314066   -0.59122231873286
H        -2.16967340808065   -0.39539866644591    0.71681244073557
O        -1.35738684164853    1.66022158645626   -0.07948333813143
H        -0.63502653691699    1.60192185161098   -0.64013236973027
H        -0.99556771562192    2.05209489809237    0.69831459057889
O        -0.63331442589250   -0.34050693488658   -2.12442494009659
H        -0.39675096231305   -0.99481595121129   -2.73737044460491
H         0.20232243585641   -0.14910392352141   -1.63294878893038
O         1.82617683452973   -0.38236774066087   -0.85898979956009
H         2.08214123069290   -0.06214421919680   -0.00697824470058
H         1.91986121458167   -1.31702993762785   -0.85803587956779
O         0.68337439157432   -1.31045684584838    1.39452533763639
H        -0.06068430691320   -1.23379010218683    0.85287005040826
H         0.40222152098668   -1.82958629733398    2.07754733589741
O         1.07677470328482    1.46018550713322    1.35140226465815
H         0.94209751805723    2.30112727433834    1.71503881298324
H         0.62331759400308    0.82197463829721    1.88592658508436
18
 energy: -30.450368167115 gnorm: 0.159425865345 xtb: 6.4.0 (d4b70c2)
O        -1.59578828522878   -1.04201392381009    0.17538277714244
H        -1.59198390645120   -0.57591258317002   -0.70525316582497
H        -2.28525189521747   -0.60950283910047    0.77318037022997
O        -1.32083117195027    1.69789433816558   -0.06712757258467
H        -0.53806657433317    1.65871699028189   -0.53999482666005
H        -1.17080705492288    2.12119985149686    0.76250137884932
O        -0.64497388349477   -0.38934093356065   -2.09761506878921
H        -0.56748460090283   -1.24340616773155   -2.46880099396772
H         0.24318672257780   -0.24301999612026   -1.63636557950197
O         1.82105070506937   -0.38472207291877   -0.85434540729093
H         1.69706787195476   -0.34386858917813    0.09072674271268
H         1.96230276688921   -1.30213823589251   -1.02117242257684
O         0.71313526257793   -1.33103813518860    1.35490763662427
H        -0.03611751519389   -1.12937399681028    0.87570394345887
H         0.37931848806379   -1.84173054558198    2.04100649781485
O         1.05228881596381    1.50001353765150    1.38013339073070
H         0.77148252206827    2.31114455637194    1.74080428522271
H         0.66563262268227    0.76595637714359    1.82192917291396
18
 energy: -30.451072155435 gnorm: 0.122075910625 xtb: 6.4.0 (d4b70c2)
O        -1.58397364030260   -1.02278513616631    0.14737831129501
H        -1.66975262435463   -0.58112428437112   -0.74153608732014
H        -2.37588217014747   -0.70780322096169    0.68617624417162
O        -1.30408308488759    1.73801565815420   -0.05900942616130
H        -0.41287799066309    1.71672991708422   -0.36000121907962
H        -1.23899382544300    2.23373172213867    0.76062323430149
O        -0.63257524492621   -0.44172316080297   -2.09534460770647
H        -0.83073130983441   -1.37452404476783   -2.19749119585586
H         0.24626475009798   -0.27579385128935   -1.63384923930123
O         1.80938745674368   -0.39141531984205   -0.85601795431634
H         1.37626793214371   -0.51347329495906   -0.02237377462062
H         2.11632999866097   -1.25000211211159   -1.14468561937835
O         0.72857397837934   -1.34733008294960    1.33383794301168
H        -0.05166904618116   -1.16955207430163    0.88282878316024
H         0.51922109495290   -1.93689422007055    2.06098786350633
O         1.03504403040214    1.54748277665471    1.40243561941716
H         0.62581645540256    2.20756415057578    1.95919490797945
H         0.78542970300035    0.71599405579291    1.77327468508757
18
 energy: -30.460723233233 gnorm: 0.103212541806 xtb: 6.4.0 (d4b70c2)
O        -1.61037122403689   -1.02587939437663    0.14388645086236
H        -1.41611891141768   -0.40450322574757   -0.63343552519555
H        -2.41379728165873   -0.69824010418773    0.60255461838130
O        -1.28870184549930    1.78549907194574   -0.04923786293229
H        -0.34495535485648    1.67407981028679   -0.22468074069004
H        -1.40751121103128    2.37751252255778    0.71062391851770
O        -0.63054623474590   -0.48637652800136   -2.11697984906090
H        -0.79590843682411   -1.44683416506816   -1.99546556343074
H         0.36093545853299   -0.45459388158036   -1.84406219396580
O         1.78787034301597   -0.39803765783012   -0.88865727408187
H         1.42841350944928   -0.67288390528113   -0.03595340544571
H         2.35659087157605   -1.13513297880260   -1.17814961367965
O         0.72676205766880   -1.35822911559917    1.33163522260399
H        -0.17285761647080   -1.35916215979015    1.00083061180067
H         0.72936162658278   -2.06294825115968    2.04357630726330
O         1.00951137971106    1.59920191085250    1.43812317949656
H         0.62196377086967    2.03982157280140    2.22157368775724
H         1.06885642679847    0.66482087079768    1.58788814511271
18
 energy: -30.454363348072 gnorm: 0.112109733467 xtb: 6.4.0 (d4b70c2)
O        -1.65169817338078   -1.03988109469339    0.16071522116802
H        -1.16693166968594   -0.28849690629010   -0.29649325254244
H        -2.40821158183560   -0.58130185437403    0.50737028158139
O        -1.28752227855600    1.82771373469752   -0.04715139403329
H        -0.30513456694710    1.69583410919621    0.04948447050801
H        -1.45028729308038    2.54951386523279    0.59648194632375
O        -0.60610237592363   -0.54882475169307   -2.15648953685596
H        -0.82627852474693   -1.51678301221067   -2.04839390495208
H         0.32368149348761   -0.25926693391116   -2.03243172767872
O         1.77662621303360   -0.41920056682309   -0.93885793618093
H         1.54848191503933   -0.77378351271447   -0.05994913654989
H         2.61274795510826   -0.87099142065966   -1.20340869599511
O         0.70799187030148   -1.37407753449614    1.35583417366186
H        -0.22672394937427   -1.39172036666778    1.00592311179972
H         0.99063163591449   -2.16961854289388    1.93492799908273
O         0.98716186105379    1.65157171699958    1.48366103321667
H         0.71725202559659    1.68039238590531    2.44314283723151
H         1.29478265989147    0.75017558899360    1.37557858236956
18
 energy: -30.451324850057 gnorm: 0.145335076132 xtb: 6.4.0 (d4b70c2)
O        -1.68955048552547   -1.04050678852893    0.20757317155138
H        -1.10728134521666   -0.37544694366547   -0.26865779538153
H        -2.43666848129123   -0.57456859442810    0.46259359528733
O        -1.28006505794409    1.87157815614952   -0.03414718928609
H        -0.33817869128814    1.72327613960266    0.28678930849174
H        -1.60431274646975    2.70353984914763    0.35799787938018
O        -0.60653109812654   -0.58502190478402   -2.23029015782210
H        -0.53126591190452   -1.57870522787561   -2.07094622937896
H         0.33530676395148   -0.42134030222603   -2.02132413550925
O         1.79323765792060   -0.44631760857341   -0.99100177089630
H         1.54520832452531   -0.89128562013570   -0.14806432887085
H         2.75124438179779   -0.50896725726321   -1.19863763839103
O         0.70956838524329   -1.37362768521589    1.38652869953315
H        -0.27029936347289   -1.52773607500557    1.12853404389452
H         0.93136386304673   -2.33025420658310    1.70182078321325
O         0.97422995189269    1.68560121366612    1.55006103220418
H         0.82522237064820    1.39504739556157    2.48931047071445
H         1.41273992925039    0.97994075435192    1.05663942352174
18
 energy: -30.456128126891 gnorm: 0.141727522117 xtb: 6.4.0 (d4b70c2)
O        -1.71389230826784   -1.04076725399504    0.27525580248599
H        -1.35560680882523   -0.52967698192130   -0.54185022646020
H        -2.47644664258699   -0.56511265470356    0.42895468787944
O        -1.27996073201058    1.90958994972795   -0.01988421121498
H        -0.47437346173727    1.93812521216534    0.61525760388987
H        -1.66902396476416    2.78565674811455    0.06322271197231
O        -0.57624773017990   -0.64345010784054   -2.30783293187345
H        -0.66989856119504   -1.61639768339650   -2.20096820329230
H         0.20186394270674   -0.20342672368531   -2.02943907401483
O         1.82014838667480   -0.46603682881889   -1.04593601087965
H         1.62461715431372   -1.00457321530391   -0.23750762430315
H         2.77007914676246   -0.25684808382321   -0.97105002682287
O         0.70746359235844   -1.40302797186906    1.42173147458329
H        -0.26198554299080   -1.22627170150024    1.10518748437048
H         0.98041368243930   -2.36452907853619    1.49575946243304
O         0.97216611757134    1.71470492685712    1.61612407134928
H         0.94711996082806    1.04290677452906    2.34375414472709
H         1.43572975690678    1.24470578236723    0.89301408094263
18
 energy: -30.456621288720 gnorm: 0.130770639497 xtb: 6.4.0 (d4b70c2)
O        -1.73291630855594   -1.02187968954673    0.31677249524028
H        -1.62026770885635   -0.92505032259733   -0.69119849674726
H        -2.49833905319671   -0.57067821254256    0.59097183226048
O        -1.28086620428863    1.95358770169887    0.00451318010763
H        -0.74030359850556    2.10074304237979    0.85891005422431
H        -1.67753502187794    2.76409180798416   -0.27976408739018
O        -0.58845991543840   -0.67965172184564   -2.39256539283985
H        -0.38190835200096   -1.62210121908210   -2.26740637118867
H         0.20843204757975   -0.41251601567155   -1.98209028066026
O         1.86881525994395   -0.48931253984154   -1.08223395575671
H         1.50563036994881   -0.94016228787845   -0.26960212925143
H         2.66449787008986   -0.02307295033491   -0.83316217007116
O         0.73346003644298   -1.41412405979024    1.44844957594219
H        -0.23416091232032   -1.17926876032283    1.09743942993088
H         0.65048175254937   -2.37231020635625    1.29707135023344
O         0.98431681756680    1.72041300848281    1.68234357435865
H         0.95162973618402    0.82812679057785    2.06841009451964
H         1.34960631454141    1.62843578793952    0.76963778053991
18
 energy: -30.449446144403 gnorm: 0.163545361556 xtb: 6.4.0 (d4b70c2)
O        -1.74510994233827   -1.02382118645009    0.34579851198916
H        -1.87433533423961   -1.04947901203477   -0.66091320397430
H        -2.43942905517168   -0.42080791365165    0.65978085203497
O        -1.29084400637557    1.98952666417228    0.03022320203098
H        -0.99800623341441    2.33674655610052    0.94606543750028
H        -1.55620793957661    2.73597548515075   -0.47355821015509
O        -0.58080923482226   -0.74400022480333   -2.44278920520793
H        -0.39552112062114   -1.63671432796240   -2.65041177530097
H         0.11210907226508   -0.25351782309500   -2.11526603547226
O         1.91490978942874   -0.51497236005582   -1.09840897009817
H         1.44680932469080   -0.76355691418572   -0.24930784897802
H         2.51222609397260    0.14392047572887   -0.78304014886410
O         0.73476023786602   -1.43565247097748    1.43912328070163
H        -0.10279399200417   -0.87662343175556    1.22621672690151
H         0.58401506878978   -2.33560902466139    1.32812508089221
O         1.00207740860840    1.71208912611956    1.74214900085636
H         0.93558410092185    0.75861844648509    1.70003214259878
H         1.14319052317513    2.01104426070266    0.81045559659711
18
 energy: -30.441850133583 gnorm: 0.177461727394 xtb: 6.4.0 (d4b70c2)
O        -1.77243041689442   -1.03011577176059    0.37422106510796
H        -1.83521835012061   -1.03900027079010   -0.63671990106152
H        -2.24115754955629   -0.20327009210165    0.69193610518600
O        -1.30494448205476    2.02931199094038    0.05997824101397
H        -1.22958414055777    2.49768819442413    0.94829721526903
H        -1.40867928173048    2.67749587216574   -0.61957499347350
O        -0.60429507405994   -0.80675375933597   -2.49126106770185
H        -0.16652978027982   -1.48454883706134   -2.95225804122220
H         0.18675279765919   -0.38782132676976   -2.27274399725854
O         1.95232236935570   -0.52502127493253   -1.08781074442225
H         1.42340289232986   -0.83392061739258   -0.29863063058429
H         2.43023248233609    0.25484603085315   -0.91803154072794
O         0.74823494152565   -1.42571148704851    1.41726830599476
H        -0.18717790210879   -1.00757992185067    1.26798368441726
H         0.44277147861139   -2.27012263656181    1.37758487080872
O         1.01748496693666    1.69929443397063    1.78531735463755
H         1.01048274764269    0.81787709703496    1.46522860953107
H         0.92013710161201    2.30297485193784    1.01925464929838
18
 energy: -30.448016096790 gnorm: 0.179952346728 xtb: 6.4.0 (d4b70c2)
O        -1.81134633032825   -1.02753958444005    0.40479437392041
H        -1.56275751977287   -0.98977790638248   -0.57574942697321
H        -1.91586129059752   -0.02652758862460    0.59201574435701
O        -1.32145317562713    2.06757986908543    0.09120153345775
H        -1.45615421220780    2.63303620652739    0.88041183387148
H        -1.29366416630318    2.62023616387696   -0.69278155117511
O        -0.59165657844803   -0.87490176996985   -2.54821189788402
H        -0.34987253882033   -1.42823700753829   -3.24405795848698
H         0.07459603892806   -0.41210265835461   -2.11848437844269
O         1.96883745280844   -0.53434643370755   -1.09415717856173
H         1.65918677689866   -0.89278194694920   -0.19966522058087
H         2.32995638896379    0.29759233682401   -0.83585881221921
O         0.72886601599653   -1.41304773267700    1.37720734415304
H        -0.19901850643125   -1.01443243803420    1.21743732762430
H         0.70008411802535   -2.30271037452393    1.49966928275091
O         1.03383436567109    1.69565210661475    1.82556379374548
H         1.09481769362927    0.89816698902119    1.34614876471028
H         0.73275115952585    2.38386297248049    1.22428262013594
18
 energy: -30.455468131795 gnorm: 0.103124227625 xtb: 6.4.0 (d4b70c2)
O        -1.83225936634162   -0.98585222907524    0.41489576980902
H        -1.37502706311213   -1.22918938822571   -0.43461267641540
H        -1.70036972564778    0.01351617288917    0.56364447175222
O        -1.33643445752830    2.10279181952467    0.12660670910126
H        -1.71650429276212    2.73765715737061    0.72123778329254
H        -1.23220286171322    2.56564446129959   -0.72578124930632
O        -0.60882104652079   -0.93090289439530   -2.58551648539285
H        -0.25774919579620   -1.27953694422425   -3.40207578395774
H         0.23953680670863   -0.76071070041854   -2.18541586130754
O         1.96766371164114   -0.53302244087152   -1.07682268097530
H         1.87071714766705   -1.10477601860198   -0.26474666719357
H         2.33396888112659    0.32117502952565   -0.86037370158649
O         0.72582753632785   -1.38090150883254    1.32185579354954
H        -0.31167886952270   -1.41304150265200    1.14266774366079
H         0.86725079320105   -2.25783008883780    1.64055039445574
O         1.05597612354123    1.70083763294060    1.86780952280110
H         1.11291710453911    0.91279671230511    1.35195758166835
H         0.54525229927192    2.30779252038869    1.34743305984860
18
 energy: -30.456520648901 gnorm: 0.115076196697 xtb: 6.4.0 (d4b70c2)
O        -1.82730189901280   -0.94528338073153    0.42656793923559
H        -1.48679487042092   -1.29991337056439   -0.40803647793080
H        -1.58435023674527    0.04038031413678    0.36988360248499
O        -1.34792618340802    2.14985738987446    0.16663524613315
H        -1.99134551144715    2.69931806453039    0.53363515928331
H        -1.22849202187567    2.38641496067460   -0.77862103975621
O        -0.58325225537691   -0.98948827267286   -2.61728041954445
H        -0.47769567728949   -1.10270212519664   -3.57971410652776
H         0.19290243012636   -1.07535427901754   -2.07657716792263
O         1.95852635502643   -0.54066114403922   -1.07592280521436
H         1.94271319301784   -1.07651252035885   -0.23677174261967
H         2.35047777816455    0.28933263845985   -0.74249323811856
O         0.71511838268174   -1.37407728261345    1.25983849248209
H        -0.29378340719406   -1.56272206224281    1.08196295131381
H         1.15379862206088   -2.03166587706239    1.84221128749943
O         1.08446631199667    1.71277993761832    1.89628126431749
H         1.03516805263013    0.79718297276441    1.59014442261323
H         0.32067777856442    2.10693273391001    1.50219653167313
18
 energy: -30.454054348630 gnorm: 0.144083856123 xtb: 6.4.0 (d4b70c2)
O        -1.80188036819410   -0.90489006233761    0.42220951376106
H        -1.82322944550647   -1.28041510127144   -0.44394516343494
H        -1.58490876349984    0.05809282185539    0.28227069537572
O        -1.36404452318417    2.19461643605166    0.20811861493265
H        -2.18262824801895    2.59475659016661    0.29091317831582
H        -1.21789042023858    2.18031309739239   -0.76553354310524
O        -0.58173867482234   -1.05016552111857   -2.62464043265939
H        -0.38631233576444   -0.96477769716190   -3.60339887157519
H         0.33554251334751   -1.22133034161919   -2.30587665643062
O         1.96075238574073   -0.55109862151248   -1.06784407003888
H         1.69164278237100   -1.06506994156643   -0.26833802505784
H         2.28942790332169    0.33166682825998   -0.79528466614413
O         0.73482066866708   -1.37055491709986    1.19361773656743
H        -0.28355076452171   -1.57592239225423    1.23086968118284
H         1.10711367252058   -1.77062990002119    2.06405563486150
O         1.09659631560031    1.70853690460289    1.90577840413753
H         1.06281582212414    0.73668221594795    2.01797776591431
H         0.20727866847441    1.93426169208732    1.69617826159490
18
 energy: -30.447142439323 gnorm: 0.143226808260 xtb: 6.4.0 (d4b70c2)
O        -1.77947207168224   -0.86692422132742    0.40577135681358
H        -2.08531315065139   -1.18249326726382   -0.40016288061355
H        -1.58281488420806    0.08300131050812    0.29939929727022
O        -1.39575557571190    2.23396580072066    0.23501270933702
H        -2.29699907209391    2.45307965432455    0.16441109381651
H        -1.04576043151456    1.93451834108212   -0.62005182770304
O        -0.55745733727919   -1.11461483839501   -2.63953885707878
H        -0.50421822019063   -0.80575491511576   -3.59255709575561
H         0.34821699513406   -1.20416539944990   -2.23223007807642
O         1.96517272170709   -0.57101604822101   -1.07681012523225
H         1.37294615681752   -0.85148664007250   -0.33789268493146
H         2.15296473705935    0.34323079715009   -0.76734377463548
O         0.76159630269459   -1.37850906053645    1.16546572941134
H        -0.28581506660395   -1.35866748926093    1.08604300069516
H         1.02697148257210   -1.51572108570590    2.15606469339567
O         1.09661241678283    1.68416135094809    1.91566100842186
H         1.19550976494557    0.80891538779983    2.36032405280131
H         0.18059012709711    1.88324752469617    1.79071283473051
18
 energy: -30.444206774017 gnorm: 0.133361761759 xtb: 6.4.0 (d4b70c2)
O        -1.76900000382360   -0.82315507539609    0.39514496567099
H        -2.14723345013337   -1.07843582106295   -0.40006392618014
H        -1.59261633981523    0.11607559111050    0.32468066531575
O        -1.42891080094715    2.24936316274616    0.26709088631794
H        -2.32225721658933    2.34910064610342   -0.07909989169522
H        -0.93697456062354    1.88323608960364   -0.47494947961577
O        -0.53988061697719   -1.18086514598183   -2.64560339852163
H        -0.48183430403502   -0.67151613244352   -3.48903452863677
H         0.37741426527359   -1.01479044493839   -2.22399385053975
O         1.94440702871005   -0.57123858395763   -1.08851890734841
H         1.33746982693858   -0.93155134253003   -0.42522937130030
H         2.20036315286344    0.33668483656030   -0.88869094769141
O         0.78117853266281   -1.39002270171831    1.15603217288363
H        -0.18939288313869   -1.13506800525091    0.88554989750047
H         0.84654683735477   -1.32232846187120    2.18387545496996
O         1.10473781687495    1.66275355168618    1.92761395565776
H         1.19728103403563    0.92702310054997    2.59105421883605
H         0.15814517564961    1.77289464453444    1.80345646971316
18
 energy: -30.455485805229 gnorm: 0.109788620247 xtb: 6.4.0 (d4b70c2)
O        -1.76244541949317   -0.76337190832956    0.38647221374636
H        -2.04393304811446   -1.06512956217181   -0.45997755804366
H        -1.72987398406696    0.17932973533478    0.40628040161833
O        -1.46906588887942    2.23273571270641    0.28720432929250
H        -2.29352155576132    2.38697221859369   -0.24451840334324
H        -0.73022837456358    2.06454752055492   -0.28708076097157
O        -0.51155835599703   -1.21723520494420   -2.64233043562770
H        -0.49748679320830   -0.69451893560490   -3.45085708027067
H         0.37126300083176   -1.05915714064678   -2.15106533201250
O         1.90342394810155   -0.56576067806655   -1.14113542013411
H         1.73079331664859   -0.99074953655655   -0.27113532704149
H         2.24258049671100    0.25832225707430   -0.79971301704393
O         0.79285269952635   -1.39127437974891    1.15785232527142
H        -0.17791001471040   -1.22469205674303    0.77932613250262
H         0.67794587764079   -1.24087594529309    2.13827986768500
O         1.10813041944242    1.63434011882418    1.93989064923050
H         1.23440009316536    1.11677071459864    2.76538466324874
H         0.16197682271870    1.77891982847129    1.76351317512156
18
 energy: -30.452276847617 gnorm: 0.135018066543 xtb: 6.4.0 (d4b70c2)
O        -1.75901680068122   -0.70109148032568    0.38459974175767
H        -1.76133138841329   -0.95724524477942   -0.55756825810057
H        -1.92254368676189    0.21547512709658    0.39464783910939
O        -1.50610460359646    2.19364840363446    0.30485801235021
H        -2.12969527426192    2.49926550161909   -0.43476342600897
H        -0.65856472619108    2.37467249401602   -0.08327430157262
O        -0.48879079960241   -1.24222127579030   -2.62481952490881
H        -0.42026196030802   -0.78132094542386   -3.42879925975658
H         0.40485813852485   -1.13806588176321   -2.11593953005271
O         1.86496809483410   -0.55307767120681   -1.16705620232470
H         2.00784992765814   -1.19022431128734   -0.46503852542928
H         2.26797801299853    0.26686414257619   -0.96155393581104
O         0.79021562230762   -1.38925782802244    1.16915791768926
H        -0.10467613930658   -1.43841431724490    0.66554022866918
H         0.63410954430524   -1.24573694979127    2.08694337115179
O         1.11751703199994    1.60824657603358    1.94595274733094
H         1.15695202533915    1.35527131558122    2.87685019630138
H         0.15208776545927    1.76018130041121    1.81558261909410
18
 energy: -30.445250534115 gnorm: 0.169478607557 xtb: 6.4.0 (d4b70c2)
O        -1.76594688148855   -0.64662995763228    0.36432349254948
H        -1.40829535621973   -0.80404189705561   -0.55735364489103
H        -1.94487988430585    0.25883418932147    0.43235328263288
O        -1.53136652210339    2.16243569057228    0.29527795703639
H        -2.06906579336899    2.58300551524169   -0.44852137265367
H        -0.66922465211847    2.54485319780927    0.33860625851785
O        -0.47191782581721   -1.26554452258954   -2.59681419454324
H        -0.25588008013251   -0.88196585581664   -3.40689032912855
H         0.40717299158462   -1.12455214052892   -2.05821348506403
O         1.83127417579529   -0.54766121606405   -1.21760003332341
H         2.08983245379625   -1.18298987668335   -0.55814253535445
H         2.28842798116965    0.23149966278505   -0.94915284257372
O         0.80342067442627   -1.40724554756036    1.17908264693807
H        -0.11187801169716   -1.43265542997235    0.73832561655870
H         0.53055376895930   -1.22056086802111    2.02015473071280
O         1.11402770984955    1.58976796151311    1.96447469736666
H         1.23289371251007    1.56634585570635    2.89418454207415
H         0.16583715697261    1.68092041368645    1.73043256562777
18
 energy: -30.447095740728 gnorm: 0.177330369310 xtb: 6.4.0 (d4b70c2)
O        -1.76484146014114   -0.60343336557950    0.32907359858641
H        -1.26056781883801   -0.63505920266875   -0.55401455836572
H        -1.86100091539488    0.31912602198488    0.46663342021339
O        -1.55154469596811    2.13992359319776    0.29077877358157
H        -1.93601367991043    2.67327112658232   -0.45364557919729
H        -0.83515969128600    2.69135251556518    0.59445960767019
O        -0.44831246547400   -1.27618554948026   -2.56269919749653
H        -0.21520497402222   -1.04733058784071   -3.43493671747788
H         0.34929527274969   -1.15452052533197   -1.91487305518717
O         1.82166936792558   -0.54378850207170   -1.27474133655133
H         1.87174934878149   -1.18114258194395   -0.56138312521360
H         2.17425501059704    0.26917323369466   -0.92541813357180
O         0.80158178421578   -1.43838275538951    1.20108204993090
H        -0.02938698514835   -1.33098238593663    0.68303184938105
H         0.69431732866540   -1.15669228034741    2.03553085834837
O         1.11738486209202    1.58471045156252    1.97415707763750
H         1.19585151801174    1.74229978110919    2.88659335980628
H         0.16422076300326    1.38564096790459    1.85128397139984
18
 energy: -30.454369920321 gnorm: 0.121268723478 xtb: 6.4.0 (d4b70c2)
O        -1.73656216919141   -0.55929690317600    0.28598814628418
H        -1.45970268431207   -0.64759576316891   -0.70331305694798
H        -1.84259720118693    0.36247253444808    0.50770222734514
O        -1.56237779270811    2.14708559772212    0.28953254280639
H        -1.89761438096344    2.60131580932954   -0.48103951509003
H        -1.00180784299535    2.70948639341154    0.82823120881414
O        -0.44693515789306   -1.28838675841993   -2.51679525637595
H        -0.09508397342903   -1.23683174229596   -3.41284779281137
H         0.45455070175027   -1.03469521224522   -2.03956676322533
O         1.83299931201223   -0.54798257102608   -1.31658219280040
H         1.52661741631158   -1.06187593149858   -0.55277447310390
H         1.92712787847519    0.33531607761992   -0.91795816516551
O         0.81368523636206   -1.47442752100996    1.20848746434321
H        -0.12557058845201   -1.24460248052601    0.93077135733161
H         0.82512610886825   -1.09757969765936    2.05145165147366
O         1.10133573872504    1.58616921439648    1.98711277942128
H         1.23832061878537    1.89361115082982    2.85641433472443
H         0.34368031506233    0.99104014222875    1.92469874408821
18
 energy: -30.450340748668 gnorm: 0.109680357130 xtb: 6.4.0 (d4b70c2)
O        -1.68564893062773   -0.53483254359901    0.24687461246529
H        -1.81550882315937   -0.68537212760761   -0.76629141107368
H        -1.78761107820688    0.43247599953456    0.31104764154713
O        -1.57602272451396    2.15446101480782    0.29917197550659
H        -1.77964571444997    2.63212228475792   -0.46705088183021
H        -1.14364975253753    2.79778134072315    0.88965808464236
O        -0.43084782203564   -1.28332061583958   -2.48696017069939