      -----------------------------------------------------------      
     |                   =====================                   |     
     |                           x T B                           |     
     |                   =====================                   |     
     |                         S. Grimme                         |     
     |          Mulliken Center for Theoretical Chemistry        |     
     |                    University of Bonn                     |     
      -----------------------------------------------------------      

   * xtb version 6.4.0 (d4b70c2) compiled by 'ehlert@majestix' on 2021-02-01

   xtb is free software: you can redistribute it and/or modify it under
   the terms of the GNU Lesser General Public License as published by
   the Free Software Foundation, either version 3 of the License, or
   (at your option) any later version.
   
   xtb is distributed in the hope that it will be useful,
   but WITHOUT ANY WARRANTY; without even the implied warranty of
   MERCHANTABILITY or FITNESS FOR A PARTICULAR PURPOSE.  See the
   GNU Lesser General Public License for more details.
   
   Cite this work as:
   * C. Bannwarth, E. Caldeweyher, S. Ehlert, A. Hansen, P. Pracht,
     J. Seibert, S. Spicher, S. Grimme, WIREs Comput. Mol. Sci., 2020,
     e01493. DOI: 10.1002/wcms.1493
   
   for GFN2-xTB:
   * C. Bannwarth, S. Ehlert and S. Grimme., J. Chem. Theory Comput., 2019,
     15, 1652-1671. DOI: 10.1021/acs.jctc.8b01176
   for GFN1-xTB:
   * S. Grimme, C. Bannwarth, P. Shushkov, J. Chem. Theory Comput., 2017,
     13, 1989-2009. DOI: 10.1021/acs.jctc.7b00118
   for GFN0-xTB:
   * P. Pracht, E. Caldeweyher, S. Ehlert, S. Grimme, ChemRxiv, 2019, preprint.
     DOI: 10.26434/chemrxiv.8326202.v1
   for GFN-FF:
   * S. Spicher and S. Grimme, Angew. Chem. Int. Ed., 2020, 59, 15665-15673.
     DOI: 10.1002/anie.202004239
   
   for DFT-D4:
   * E. Caldeweyher, C. Bannwarth and S. Grimme, J. Chem. Phys., 2017,
     147, 034112. DOI: 10.1063/1.4993215
   * E. Caldeweyher, S. Ehlert, A. Hansen, H. Neugebauer, S. Spicher,
     C. Bannwarth and S. Grimme, J. Chem. Phys., 2019, 150, 154122.
     DOI: 10.1063/1.5090222
   * E. Caldeweyher, J.-M. Mewes, S. Ehlert and S. Grimme, Phys. Chem. Chem. Phys.
     2020, 22, 8499-8512. DOI: 10.1039/D0CP00502A
   
   for sTDA-xTB:
   * S. Grimme and C. Bannwarth, J. Chem. Phys., 2016, 145, 054103.
     DOI: 10.1063/1.4959605
   
   in the mass-spec context:
   * V. Asgeirsson, C. Bauer and S. Grimme, Chem. Sci., 2017, 8, 4879.
     DOI: 10.1039/c7sc00601b
   * J. Koopman and S. Grimme, ACS Omega 2019, 4, 12, 15120-15133.
     DOI: 10.1021/acsomega.9b02011
   
   for metadynamics refer to:
   * S. Grimme, J. Chem. Theory Comput., 2019, 155, 2847-2862
     DOI: 10.1021/acs.jctc.9b00143
   
   with help from (in alphabetical order)
   P. Atkinson, C. Bannwarth, F. Bohle, G. Brandenburg, E. Caldeweyher
   M. Checinski, S. Dohm, S. Ehlert, S. Ehrlich, I. Gerasimov, J. Koopman
   C. Lavinge, S. Lehtola, F. März, M. Müller, F. Musil, H. Neugebauer
   J. Pisarek, P. Pracht, J. Seibert, P. Shushkov, S. Spicher, M. Stahn
   T. Strunk, J. Stückrath, T. Rose, and J. Unsleber
   
 * started run on 2021/09/02 at 14:37:05.472     

           -------------------------------------------------
          |                Calculation Setup                |
           -------------------------------------------------

          program call               : /ihome/jkeith/amm503/codes/xtb-6.4.0/bin/xtb 6mecn.malloum.etal.1.xyz --md --input 6mecn.malloum.etal.1-xtb.md.eq1-gfn2.500k.wallpot.inp --gfn 2 --charge 0 --verbose
          hostname                   : smp-n42
          coordinate file            : 6mecn.malloum.etal.1.xyz
          xtbhome directory          : /ihome/jkeith/amm503
          path for xtb               : /ihome/jkeith/amm503
          xcontrol input file        : 6mecn.malloum.etal.1-xtb.md.eq1-gfn2.500k.wallpot.inp
          omp threads                :                    12
          number of atoms            :                    36
          number of electrons        :                    96
          charge                     :                     0
          spin                       :                   0.0
          first test random number   :      0.53778139534938
          a pointer address          :            0x3F09AC0B
          random memory content      :      3FE13581542D87D8

$$$$$$$$$$$$$$$$$$$$$$$$$$$$$$$$$$$$$$$$$$$$$$$$$$$$$$$$$$$$$$$$$$$$$$$$
 CONSTRAINTS & SCANS: DEBUG SECTION
$$$$$$$$$$$$$$$$$$$$$$$$$$$$$$$$$$$$$$$$$$$$$$$$$$$$$$$$$$$$$$$$$$$$$$$$
   ID    Z sym.   atoms
    1    6 C      1, 5, 7, 11, 13, 17, 19, 23, 25, 29, 31, 35
    2    1 H      2-4, 8-10, 14-16, 20-22, 26-28, 32-34
    3    7 N      6, 12, 18, 24, 30, 36
> wall
-> potential = logfermi
-> sphere: auto, all
--> 1: auto
--> 2: all
spherical wallpotenial with radius    7.4006502 Å
-> temp = 300.0
-> beta = 6
$$$$$$$$$$$$$$$$$$$$$$$$$$$$$$$$$$$$$$$$$$$$$$$$$$$$$$$$$$$$$$$$$$$$$$$$

molecular fragmentation (1/2 indicates fragments):
111111222222222222222222222222222222
# atoms in fragment 1/2:     6    30
 fragment masses (1/2) :       41.05      205.26
CMA distance (Bohr)    :   9.564
constraining FC (au)   :  0.0500

           -------------------------------------------------
          |                 G F N 2 - x T B                 |
           -------------------------------------------------

        Reference                      10.1021/acs.jctc.8b01176
      * Hamiltonian:
        H0-scaling (s, p, d)           1.850000    2.230000    2.230000
        zeta-weighting                 0.500000
      * Dispersion:
        s8                             2.700000
        a1                             0.520000
        a2                             5.000000
        s9                             5.000000
      * Repulsion:
        kExp                           1.500000    1.000000
        rExp                           1.000000
      * Coulomb:
        alpha                          2.000000
        third order                    shell-resolved
        anisotropic                    true
        a3                             3.000000
        a5                             4.000000
        cn-shift                       1.200000
        cn-exp                         4.000000
        max-rad                        5.000000


          ...................................................
          :                      SETUP                      :
          :.................................................:
          :  # basis functions                  90          :
          :  # atomic orbitals                  90          :
          :  # shells                           54          :
          :  # electrons                        96          :
          :  max. iterations                   250          :
          :  Hamiltonian                  GFN2-xTB          :
          :  restarted?                      false          :
          :  GBSA solvation                  false          :
          :  PC potential                    false          :
          :  electronic temp.          300.0000000     K    :
          :  accuracy                    1.0000000          :
          :  -> integral cutoff          0.2500000E+02      :
          :  -> integral neglect         0.1000000E-07      :
          :  -> SCF convergence          0.1000000E-05 Eh   :
          :  -> wf. convergence          0.1000000E-03 e    :
          :  Broyden damping             0.4000000          :
          ...................................................

 iter      E             dE          RMSdq      gap      omega  full diag
   1    -53.0445892 -0.530446E+02  0.616E+00    6.40       0.0  T
   2    -53.0681322 -0.235430E-01  0.396E+00    6.43       1.0  T
   3    -52.9799948  0.881375E-01  0.256E+00    5.64       1.0  T
   4    -53.1321773 -0.152183E+00  0.521E-01    5.83       1.0  T
   5    -53.1353997 -0.322241E-02  0.130E-01    5.81       1.0  T
   6    -53.1354755 -0.757936E-04  0.788E-02    5.82       1.0  T
   7    -53.1356217 -0.146215E-03  0.265E-02    5.82       1.0  T
   8    -53.1356238 -0.209666E-05  0.526E-03    5.82       3.2  T
   9    -53.1356246 -0.770038E-06  0.183E-03    5.82       9.1  T
  10    -53.1356246 -0.398742E-07  0.718E-04    5.82      23.2  T
  11    -53.1356246 -0.198747E-08  0.134E-04    5.82     124.7  T

   *** convergence criteria satisfied after 11 iterations ***

 SCC (total)                   0 d,  0 h,  0 min,  0.051 sec
 SCC setup                      ...        0 min,  0.000 sec (  0.426%)
 Dispersion                     ...        0 min,  0.000 sec (  0.729%)
 classical contributions        ...        0 min,  0.000 sec (  0.071%)
 integral evaluation            ...        0 min,  0.003 sec (  5.529%)
 iterations                     ...        0 min,  0.043 sec ( 84.867%)
 molecular gradient             ...        0 min,  0.004 sec (  7.964%)
 printout                       ...        0 min,  0.000 sec (  0.261%)

         :::::::::::::::::::::::::::::::::::::::::::::::::::::
         ::                     SUMMARY                     ::
         :::::::::::::::::::::::::::::::::::::::::::::::::::::
         :: total energy             -52.170129350658 Eh    ::
         :: gradient norm              0.130627354465 Eh/a0 ::
         :: HOMO-LUMO gap              5.818297215312 eV    ::
         ::.................................................::
         :: HOMO orbital eigv.       -11.666768281010 eV    ::
         :: LUMO orbital eigv.        -5.848471065698 eV    ::
         ::.................................................::
         :: SCC energy               -53.135624636408 Eh    ::
         :: -> isotropic ES            0.063837186609 Eh    ::
         :: -> anisotropic ES         -0.008012520846 Eh    ::
         :: -> anisotropic XC          0.111494470816 Eh    ::
         :: -> dispersion             -0.031565431790 Eh    ::
         :: repulsion energy           0.964576303461 Eh    ::
         :: add. restraining           0.000000000001 Eh    ::
         :: total charge               0.000000000000 e     ::
         ::.................................................::
         :: atomisation energy        10.428827505387 Eh    ::
         :::::::::::::::::::::::::::::::::::::::::::::::::::::

           -------------------------------------------------
          |                Property Printout                |
           -------------------------------------------------

           -------------------------------------------------
          | TOTAL ENERGY              -52.170129350658 Eh   |
          | GRADIENT NORM               0.130627354465 Eh/α |
          | HOMO-LUMO GAP               5.818297215312 eV   |
           -------------------------------------------------
           ------------------------------------------------- 
          |               Molecular Dynamics                |
           ------------------------------------------------- 
 trajectories on xtb.trj or xtb.trj.<n>
 
 MD time /ps        :   10.00
 dt /fs             :    1.00
 SCC accuracy       :    1.00
 temperature /K     :  300.00
 max steps          : 10000
 block length (av.) :  5000
 dumpstep(trj) /fs  :   10.00    10
 dumpstep(coords)/fs: 1000.00  1000
 H atoms mass (amu) :     1
 # deg. of freedom  :   108
 SHAKE off
 Berendsen THERMOSTAT on
         time (ps)    <Epot>      Ekin   <T>   T     Etot
      0    0.00      0.00000   0.1283    0.    0.   -52.04187
est. speed in wall clock h for 100 ps :  0.53
    200    0.20    -51.85785   0.0642  391.  376.   -52.05362
    400    0.40    -51.98742   0.0591  378.  346.   -52.05828
    600    0.60    -52.03057   0.0742  366.  434.   -52.05986
    800    0.80    -52.05215   0.0586  356.  343.   -52.06288
   1000    1.00    -52.06520   0.0459  349.  269.   -52.06724
   1200    1.20    -52.07376   0.0560  343.  327.   -52.06536
   1400    1.40    -52.08031   0.0551  340.  322.   -52.06611
   1600    1.60    -52.08540   0.0512  337.  300.   -52.05957
   1800    1.80    -52.08921   0.0563  334.  329.   -52.06217
   2000    2.00    -52.09210   0.0572  330.  334.   -52.06981
   2200    2.20    -52.09462   0.0564  328.  330.   -52.06459
   2400    2.40    -52.09666   0.0610  326.  357.   -52.06571
   2600    2.60    -52.09848   0.0643  324.  376.   -52.06153
   2800    2.80    -52.10013   0.0484  323.  283.   -52.07509
   3000    3.00    -52.10150   0.0583  322.  341.   -52.07291
   3200    3.20    -52.10282   0.0575  321.  336.   -52.07383
   3400    3.40    -52.10414   0.0485  321.  284.   -52.06949
   3600    3.60    -52.10510   0.0437  320.  256.   -52.07318
   3800    3.80    -52.10601   0.0539  319.  315.   -52.07180
   4000    4.00    -52.10687   0.0514  318.  301.   -52.06661
   4200    4.20    -52.10761   0.0486  317.  284.   -52.07152
   4400    4.40    -52.10823   0.0549  316.  321.   -52.07485
   4600    4.60    -52.10887   0.0573  316.  335.   -52.06813
   4800    4.80    -52.10944   0.0473  315.  276.   -52.07100
block <Epot> / <T> :     -52.12052  315.     drift:  0.99D+02   Tbath : 300.
   5000    5.00    -52.11010   0.0617  315.  361.   -52.07254
   5200    5.20    -52.11061   0.0584  314.  342.   -52.07262
   5400    5.40    -52.11107   0.0440  314.  257.   -52.07353
   5600    5.60    -52.11140   0.0478  313.  279.   -52.07414
   5800    5.80    -52.11168   0.0436  312.  255.   -52.07435
   6000    6.00    -52.11205   0.0500  312.  292.   -52.07266
   6200    6.20    -52.11248   0.0527  312.  308.   -52.07961
   6400    6.40    -52.11298   0.0627  312.  367.   -52.07072
   6600    6.60    -52.11331   0.0523  312.  306.   -52.06620
   6800    6.80    -52.11349   0.0512  311.  300.   -52.06876
   7000    7.00    -52.11370   0.0528  310.  309.   -52.07131
   7200    7.20    -52.11388   0.0561  310.  328.   -52.07096
   7400    7.40    -52.11414   0.0576  310.  337.   -52.06722
   7600    7.60    -52.11436   0.0581  309.  340.   -52.06804
   7800    7.80    -52.11447   0.0531  309.  311.   -52.06895
   8000    8.00    -52.11455   0.0569  308.  333.   -52.06775
   8200    8.20    -52.11476   0.0614  308.  359.   -52.06979
   8400    8.40    -52.11503   0.0564  309.  330.   -52.07477
   8600    8.60    -52.11524   0.0547  309.  320.   -52.07094
   8800    8.80    -52.11544   0.0526  309.  308.   -52.07203
   9000    9.00    -52.11569   0.0561  309.  328.   -52.07449
   9200    9.20    -52.11591   0.0542  309.  317.   -52.07035
   9400    9.40    -52.11610   0.0467  308.  273.   -52.07695
   9600    9.60    -52.11633   0.0563  309.  329.   -52.07260
   9800    9.80    -52.11656   0.0489  309.  286.   -52.07664
 average properties 
 Epot               :  -52.1167547900282     
 Epot (accurate SCC):  -52.1219602346468     
 Ekin               :  5.273595715493399E-002
 Etot               :  -52.0640188328732     
 T                  :   308.383590275011     
 thermostating problem
 normal exit of md()

------------------------------------------------------------------------
 unit  open   action     filename
  129 false : read       6mecn.malloum.etal.1-xtb.md.eq1-gfn2.500k.wallpot.inp
  130 false : read       6mecn.malloum.etal.1.xyz
  131 false : read       6mecn.malloum.etal.1-xtb.md.eq1-gfn2.500k.wallpot.inp
  132 false : written    xtb.trj
  133 false : written    scoord.1
  134 false : written    scoord.2
  135 false : written    scoord.3
  136 false : written    scoord.4
  137 false : written    scoord.5
  138 false : written    scoord.6
  139 false : written    scoord.7
  140 false : written    scoord.8
  141 false : written    scoord.9
  142 false : written    mdrestart
  143 false : created    xtbmdok
  144 false : written    xtbrestart

------------------------------------------------------------------------
 * finished run on 2021/09/02 at 14:40:16.421     
------------------------------------------------------------------------
 total:
 * wall-time:     0 d,  0 h,  3 min, 10.949 sec
 *  cpu-time:     0 d,  0 h, 38 min, 10.901 sec
 * ratio c/w:    11.997 speedup
 SCF:
 * wall-time:     0 d,  0 h,  0 min,  0.051 sec
 *  cpu-time:     0 d,  0 h,  0 min,  0.436 sec
 * ratio c/w:     8.473 speedup
 MD:
 * wall-time:     0 d,  0 h,  3 min, 10.857 sec
 *  cpu-time:     0 d,  0 h, 38 min, 10.194 sec
 * ratio c/w:    12.000 speedup

normal termination of xtb
