36
 energy: -52.170129350730 gnorm: 0.130628714882 xtb: 6.4.0 (d4b70c2)
C        -4.09693800000000   -1.34497900000000    1.23323000000000
H        -3.49414400000000   -0.67232800000000    1.85049400000000
H        -3.63078100000000   -2.33321200000000    1.23691500000000
H        -5.11086000000000   -1.40997200000000    1.63602700000000
C        -4.13178200000000   -0.82544300000000   -0.13087000000000
N        -4.15067800000000   -0.40622000000000   -1.21495700000000
C        -0.80839300000000   -0.76018400000000   -2.09511700000000
H        -0.36926700000000   -1.52723100000000   -2.73800400000000
H        -0.15910100000000    0.12046900000000   -2.11422400000000
H        -1.81325000000000   -0.50526400000000   -2.44585600000000
C        -0.89009000000000   -1.25892900000000   -0.72598900000000
N        -0.95843300000000   -1.66026600000000    0.36350000000000
C         0.80840500000000    0.76019100000000    2.09515700000000
H         0.36920300000000    1.52720400000000    2.73803100000000
H         1.81327400000000    0.50534900000000    2.44592000000000
H         0.15918200000000   -0.12051400000000    2.11425100000000
C         0.89009300000000    1.25893900000000    0.72603100000000
N         0.95842500000000    1.66028300000000   -0.36345700000000
C         2.31888000000000   -2.48554800000000    0.99040900000000
H         2.94830000000000   -1.84020500000000    1.61057300000000
H         2.70768700000000   -3.50675100000000    1.02026000000000
H         1.29113600000000   -2.47917100000000    1.36679900000000
C         2.32631900000000   -1.98856300000000   -0.38267400000000
N         2.32448100000000   -1.59205400000000   -1.47538200000000
C         4.09692000000000    1.34494600000000   -1.23329700000000
H         3.63017200000000    2.33289800000000   -1.23708100000000
H         3.49463400000000    0.67193900000000   -1.85067100000000
H         5.11088400000000    1.41052800000000   -1.63589300000000
C         4.13178500000000    0.82544900000000    0.13081700000000
N         4.15069100000000    0.40625400000000    1.21491600000000
C        -2.31888100000000    2.48557700000000   -0.99038200000000
H        -2.70760000000000    3.50681500000000   -1.02018500000000
H        -2.94837500000000    1.84030900000000   -1.61055000000000
H        -1.29115000000000    2.47912600000000   -1.36680400000000
C        -2.32631800000000    1.98854600000000    0.38268500000000
N        -2.32447600000000    1.59200300000000    1.47538000000000
36
 energy: -52.133315854373 gnorm: 0.208307507331 xtb: 6.4.0 (d4b70c2)
C        -4.08999380309501   -1.27227865874297    1.23848284170064
H        -3.83905939809858   -0.44980411816049    1.88872755735074
H        -3.46775518566624   -2.13289345583897    1.47485544750346
H        -5.15487002457318   -1.40237974003424    1.33716141896619
C        -4.08082791691628   -0.88052595965488   -0.15842265960354
N        -4.20170045466852   -0.46419164268687   -1.22264252422168
C        -0.86288279937783   -0.70627609466152   -2.07137802144497
H        -0.71825544881993   -1.51454386036162   -2.73609540861539
H        -0.10020377112006   -0.00221058948412   -2.22236361512078
H        -1.79146823136949   -0.29179645501186   -2.35181241576817
C        -0.86640072666577   -1.28838993380797   -0.74265117502497
N        -1.00076980208216   -1.60752981790521    0.33713102241963
C         0.87697852883925    0.70294947624346    2.04439126506057
H         0.65699568772439    1.59047050766226    2.63494742968210
H         1.91222444085462    0.43327856757196    2.18004841230338
H         0.28102790429920   -0.16065463291352    2.28216500040922
C         0.89831705984973    1.24636664568078    0.77353387837736
N         0.89970771622128    1.64239339467138   -0.32344581713482
C         2.36675487958081   -2.46124663384593    0.93780433123153
H         3.17104201289627   -1.80476837590515    1.24517412256639
H         2.60555180758973   -3.52909615487478    1.17789103212718
H         1.47747224301704   -2.15443475866743    1.50063285730522
C         2.35051458868843   -2.04520749308561   -0.39961862380739
N         2.36249556129644   -1.52721456243150   -1.43129218731284
C         4.08615151090481    1.27639855524819   -1.21449301305852
H         3.44111150704039    2.12443304023387   -1.43747128789172
H         3.80064190311502    0.45435748978009   -1.84379898845007
H         5.20969158016827    1.40094004116523   -1.44253745152381
C         4.06388653432687    0.85163498448961    0.17326279308898
N         4.16946943545232    0.40159742514232    1.19771174843045
C        -2.28813900639376    2.46271505260202   -0.99283126882095
H        -2.88876262744590    3.34375445571393   -1.22689011778950
H        -2.69534257489613    1.64623598524473   -1.57019570860511
H        -1.26409910605745    2.49230197006795   -1.29304063071231
C        -2.38271157323439    2.04508148895432    0.38411069783047
N        -2.30809669486416    1.61084018009108    1.46660739658487
36
 energy: -52.101875200440 gnorm: 0.231939966863 xtb: 6.4.0 (d4b70c2)
C        -4.14167638093901   -1.17762308053210    1.20654858671794
H        -3.99665830254527   -0.23714706962412    1.69560727141766
H        -3.38780138858307   -1.92230343066146    1.54685263433335
H        -5.01927900672903   -1.71510252814112    1.42146485797458
C        -4.01226985192664   -0.90912731584082   -0.16934168032216
N        -4.23573840210548   -0.54091974326316   -1.21382523169212
C        -0.90948049976382   -0.70416801062907   -2.06759109489677
H        -0.91472240065457   -1.43843150059965   -2.79101121550991
H        -0.05158019039499   -0.15388012409443   -2.10448333727305
H        -1.75238513455942   -0.13847002474880   -1.99133318147641
C        -0.87934976227260   -1.24667725865092   -0.76813228979077
N        -1.02575728357078   -1.57462809265402    0.30778429896658
C         1.01168459277116    0.67251813896808    2.07163211905622
H         0.81624270082732    1.33970033054709    2.90114922164266
H         1.98953190641537    0.30717693277819    2.22692505647547
H         0.16589171803590    0.00211236919236    2.09431298027973
C         0.85599424184181    1.19874088864900    0.74204269574138
N         0.84472250119330    1.64609085507660   -0.30057938408149
C         2.45870290771964   -2.39818931560850    0.94459090646028
H         3.37062890454635   -2.05321289868822    1.34607177674298
H         2.49072206623954   -3.55951836542896    1.04460819688306
H         1.55354054327708   -1.95651209269675    1.39402694998077
C         2.34004387067260   -2.08915268856815   -0.45461816383123
N         2.39930273414988   -1.47538362818895   -1.40449460357259
C         4.10395826942781    1.17720033852983   -1.18798511651337
H         3.36776397290766    1.94823658885245   -1.48501347352299
H         3.94412087376506    0.25425554756658   -1.69072400260306
H         5.10997756152352    1.76985621680975   -1.33470417732780
C         3.99587549737628    0.86777635333074    0.17676948748461
N         4.17139837340356    0.40367773803445    1.20180166215972
C        -2.27795813919522    2.38798526195130   -0.97803945216562
H        -2.85987658734550    3.28980941564532   -1.27116401066002
H        -2.60715640751547    1.52583321118302   -1.48799136138802
H        -1.31966193383611    2.73922786506226   -1.02544640393571
C        -2.39966868558308    2.08857878525916    0.39353439050309
N        -2.31525828254581    1.65435553394794    1.42355130175935
36
 energy: -52.097915214419 gnorm: 0.244141179536 xtb: 6.4.0 (d4b70c2)
C        -4.14392048800578   -1.14417582885841    1.24004682108096
H        -4.29164138293639   -0.16798050677641    1.69520374595752
H        -3.14080229198581   -1.45236507117398    1.57061003825920
H        -5.02406436349028   -1.67174421583632    1.48710045527985
C        -4.01833963227030   -0.91760111885190   -0.18000933570341
N        -4.23430829420000   -0.61207438033346   -1.26908419439091
C        -0.92524361427734   -0.68502734568108   -2.08473787821699
H        -1.16216901679961   -1.31328791127324   -2.86769932080174
H        -0.06513931397036   -0.16415940215397   -2.27360640191360
H        -1.69117730371356    0.00390081204162   -2.14657116085234
C        -0.92022818607528   -1.22104948964780   -0.77105924291493
N        -1.03332084819078   -1.57199809794551    0.33470583937078
C         1.08924936231524    0.62805675988398    2.10297260284631
H         0.96134164732274    1.39490137624552    2.85021951589576
H         1.94855550190401    0.03758949698973    2.15527422748013
H         0.35367297277244   -0.16977724254906    2.15604139816936
C         0.86210029210218    1.19189023994765    0.73905807205789
N         0.77877756231383    1.64711185336389   -0.29361467674996
C         2.52906567623159   -2.40954033254435    0.93535613268001
H         3.44155202566513   -2.13325145210089    1.38308342774332
H         2.22574414444490   -3.53680507823338    1.08430139267935
H         1.72313612919717   -1.88922246012545    1.51197241266164
C         2.38468771264145   -2.04462313143861   -0.46136757970329
N         2.41673149458332   -1.44940396809572   -1.43250380565727
C         4.09079671069471    1.15494051212671   -1.20099408804246
H         3.12756817168685    1.55268133080004   -1.54034403468716
H         4.25520311339243    0.24859353426650   -1.76432592865202
H         5.10618280713729    1.71661465606619   -1.43330789624212
C         3.97981499166694    0.84237139291056    0.18720279809521
N         4.14773297492589    0.40770961487065    1.26366312955454
C        -2.27178278329256    2.39748723832120   -0.99766920748347
H        -3.05873918833380    3.12814994008037   -1.30179122252164
H        -2.37028739203035    1.57220008172729   -1.64971327434937
H        -1.27539563901528    2.60801184500906   -1.19687518077700
C        -2.40528582388125    2.09769323684158    0.40677427576258
N        -2.33875646583744    1.68946435891364    1.46073037763842
36
 energy: -52.112626899971 gnorm: 0.218741826207 xtb: 6.4.0 (d4b70c2)
C        -4.10265657229948   -1.05630952239986    1.26136140167517
H        -4.51728526766564   -0.14245175403407    1.64954519727065
H        -3.16346500341299   -1.35081072061087    1.75953064154969
H        -4.72908577539173   -1.93914440271493    1.45699712602471
C        -4.12350621805995   -0.89964526598807   -0.18142156837648
N        -4.18862598653039   -0.69769405142264   -1.32341796870813
C        -0.94597911301964   -0.64336428682711   -2.12532666851844
H        -1.15694341031900   -1.51188993552486   -2.70186088494022
H         0.01823098574364   -0.33837351434873   -2.39813711593333
H        -1.66857652177095    0.09033414052601   -2.24273813436939
C        -0.98504024438261   -1.20109681794156   -0.75534221874290
N        -1.02064941911624   -1.57107830189595    0.33751045951672
C         1.10204426156850    0.55879249400273    2.03336216926051
H         1.15695997797625    1.41121188443789    2.74352059636124
H         2.14271265350280    0.32044512304781    2.04177363672072
H         0.32818616950785   -0.05360938413976    2.44994793757928
C         0.92438186873437    1.18074116845945    0.79570692500260
N         0.70543714606609    1.63136463820067   -0.25829129838145
C         2.52501265238772   -2.45631540219814    0.91245391141114
H         3.57473340619758   -2.32019509558198    1.13315549753872
H         2.34153664436536   -3.59838299302209    1.06352443423745
H         1.89533703265320   -1.78215615704556    1.53133048376078
C         2.48432823908737   -1.92305545017448   -0.40915604925237
N         2.41524398034290   -1.46410426662090   -1.47354013945307
C         4.06936203086486    1.09693883575942   -1.21492597719246
H         3.11830955731594    1.45407572263608   -1.63809630792015
H         4.38587642357382    0.18418658084491   -1.68104232366795
H         4.72269580895336    2.06360100383109   -1.35879902664763
C         4.04448687421428    0.76519222863340    0.20086468239461
N         4.08986812465269    0.44308481880192    1.29963084776115
C        -2.27098169992431    2.42175127463453   -1.03121080584244
H        -3.01659999370186    3.21654628152079   -1.32918449562893
H        -2.55812225804352    1.50769906754643   -1.48761092944266
H        -1.33276492956880    2.89023363856303   -1.25212380106081
C        -2.37269538324423    2.05179575020333    0.38508084751100
N        -2.38245769281534    1.74086741678840    1.51840405927450
36
 energy: -52.145714047482 gnorm: 0.165158483217 xtb: 6.4.0 (d4b70c2)
C        -4.10541430214542   -1.00497390862715    1.23369767120576
H        -4.66056599640424   -0.24053872917955    1.77373068711851
H        -3.01546600522762   -0.90157939514928    1.49127616925289
H        -4.55097979495728   -1.98388910067680    1.50347147815004
C        -4.20172036194781   -0.86224089641655   -0.18542033904824
N        -4.13580762231866   -0.79710124027048   -1.31891718389280
C        -0.95628450188909   -0.71073962331501   -2.10555476837032
H        -1.23883534572618   -1.57496954708199   -2.72340164096456
H         0.08449975437573   -0.41591114786287   -2.25798463672018
H        -1.61280950887994    0.09733499772892   -2.34802110126363
C        -1.03728210496565   -1.12103157368861   -0.74790977586081
N        -1.00464179204791   -1.56123223403279    0.28732377342990
C         1.17612417823433    0.58822808331119    2.04969210720873
H         1.13558587907200    1.41981588458203    2.75036717825413
H         2.13630380463398    0.04260425405429    2.04922521025992
H         0.41488113108953   -0.18507256666659    2.24906822575628
C         0.92102821549460    1.14157829281556    0.79379837776021
N         0.64555733913995    1.62594812217350   -0.22335481643538
C         2.59488837904665   -2.47153586655367    0.87553774169327
H         3.62371153815329   -2.50601938069360    1.25254616958065
H         2.12332108972084   -3.51899784058253    0.71308906167867
H         1.99314553919826   -1.96284746056976    1.66327803992215
C         2.53674034837765   -1.82039861904237   -0.39201235299715
N         2.42076450499248   -1.49381160774665   -1.48797611642468
C         4.04671642289767    1.06019357355074   -1.18237055171636
H         2.97129436143538    1.05080880340751   -1.43781150138176
H         4.58435204759831    0.35973760227928   -1.82661042134615
H         4.59483351835135    2.04134981068749   -1.29839449521027
C         4.10584195895932    0.69563947156558    0.19871803027002
N         4.03286176947918    0.48917889559876    1.29799968083178
C        -2.31858470089722    2.44395584134641   -0.97308369741352
H        -3.09870994142226    3.23348436087443   -1.08022153684332
H        -2.58106829123283    1.60555334367640   -1.62148521852616
H        -1.27176028585508    2.74505973889529   -1.24355821250870
C        -2.30837495076810    2.02914201551252    0.37525434816367
N        -2.43631382360048    1.81416922595824    1.49550354653024
36
 energy: -52.114693937481 gnorm: 0.208759949281 xtb: 6.4.0 (d4b70c2)
C        -4.11847537396444   -0.95236608384433    1.21785474080248
H        -4.76569604371196   -0.27759655953816    1.77936187500158
H        -3.07452844570753   -0.58686485820542    1.29125739066807
H        -4.19560633113930   -2.01090175861029    1.60226103183903
C        -4.25213374554818   -0.83038095032422   -0.19541462535791
N        -4.09736440647204   -0.88641974455241   -1.31904330720099
C        -0.95414784575171   -0.78247257665459   -2.12097447161688
H        -1.23068471549400   -1.60249097039188   -2.82775244087430
H         0.14192213664160   -0.49408693985824   -2.28263549906777
H        -1.55846105499824    0.10784105995784   -2.40092417862564
C        -1.08620381464897   -1.05185101020274   -0.74280249713496
N        -0.99257612418671   -1.55404117226698    0.28313665421607
C         1.23844225381240    0.58838271466053    2.09796343880293
H         1.13220842569437    1.26161477964147    2.94693527636140
H         2.21543303139055    0.04954442627164    2.17733858215915
H         0.38336885847725   -0.12798467105086    2.14413938006547
C         0.89731929782804    1.11933968698432    0.75376075761735
N         0.59611824246872    1.62174925502878   -0.20704324573730
C         2.66160396321580   -2.49259047047905    0.84969610523860
H         3.64531170456672   -2.78341599924748    1.25388202067996
H         2.14474873562592   -3.40298607041967    0.48192712192924
H         2.00659978337016   -2.09096270748546    1.64245605680501
C         2.56455785320232   -1.75598529672844   -0.39450227855556
N         2.43406008444860   -1.50202670545366   -1.48777825165330
C         4.04956366742126    1.02182968657397   -1.17405526788971
H         2.98488708894776    0.84986587059792   -1.40342936030724
H         4.66822037760662    0.45331853407441   -1.87748614855590
H         4.18762043732688    2.09614560506875   -1.27594115830114
C         4.15865739654082    0.63865112935475    0.18563939931085
N         3.99506163916181    0.51799566843557    1.32514834676820
C        -2.35673156107708    2.45681492059934   -0.95481839803374
H        -2.98733500255099    3.37193723591149   -0.92310479538540
H        -2.74994347751882    1.75473481125386   -1.70187611112322
H        -1.28683225671340    2.76714583941278   -1.27053691026197
C        -2.27834732356830    2.02049191212639    0.40023392582982
N        -2.47537557148514    1.86749795330443    1.48943372684643
36
 energy: -52.111858533568 gnorm: 0.185407570947 xtb: 6.4.0 (d4b70c2)
C        -4.10490368706145   -0.86520328954987    1.22031303409136
H        -4.94514668016776   -0.37452174367319    1.74331632078586
H        -3.18692475046558   -0.38235570247920    1.56638038046677
H        -3.94279232513689   -1.95056787540876    1.49713395275755
C        -4.28217610192356   -0.85157631108628   -0.20885560498583
N        -4.08313938339546   -0.95358173683515   -1.34608136064281
C        -0.94204339465466   -0.77925720556501   -2.18266367385973
H        -1.27036552869982   -1.77866587659419   -2.62706269835500
H         0.20045594116539   -0.65305698986012   -2.38379993028649
H        -1.57245643464412    0.11184799103281   -2.48134549576108
C        -1.10249810445924   -1.07503761035917   -0.75283516838977
N        -0.99711396835526   -1.52110080180052    0.31975310518680
C         1.20130612616461    0.55358303799837    2.07851660586476
H         1.12852350865205    1.39300363701597    2.79967865317251
H         2.30288189526808    0.29792284099166    2.08592506540335
H         0.51077486352585   -0.25266747935116    2.41492507254628
C         0.91981307061902    1.13747087631984    0.79744105913098
N         0.55894039709911    1.59585227144676   -0.18549905586892
C         2.66628524049001   -2.54926510209182    0.79924307454868
H         3.76329881157844   -2.70143202803978    1.01429493924853
H         2.26868412079465   -3.49574328401131    0.62211585404468
H         2.15496423568782   -2.03124587404789    1.61972462613847
C         2.61450366615406   -1.74872347420894   -0.38542406691910
N         2.44747397530730   -1.47196397981623   -1.48715488995377
C         4.02969696633678    0.99889834944347   -1.18799473939151
H         3.07140079803992    0.62755892386764   -1.57614333446959
H         4.82274634330586    0.53324636921953   -1.80808088405031
H         4.02112420640249    2.02981949410886   -1.21473215632180
C         4.18081734609149    0.62158380597612    0.19342416879731
N         3.99984932837180    0.52166864883320    1.34593480044390
C        -2.35610538838876    2.51271030869245   -0.98100166883883
H        -2.89495128080013    3.45943651177910   -0.92974242920259
H        -3.00133845188302    1.78488677327534   -1.50433729737845
H        -1.30066007208253    2.77667402583037   -1.42029985527376
C        -2.30919051770087    2.02684387070455    0.40954232155937
N        -2.49219534667414    1.88779316425028    1.53783488111141
36
 energy: -52.109288510536 gnorm: 0.263407229260 xtb: 6.4.0 (d4b70c2)
C        -4.11490438387193   -0.79072798526782    1.21513736948548
H        -5.11809141586987   -0.62193409510809    1.65717285490686
H        -3.40005462469043   -0.04170377399723    1.50128559057368
H        -3.94936767401026   -1.86227811754412    1.52229964454959
C        -4.20998973757462   -0.88459901189513   -0.21304271952508
N        -4.11286032743025   -1.00211556211593   -1.35460561571337
C        -0.95020550565367   -0.82482704526782   -2.14573156264374
H        -1.40438837713344   -1.70839875016073   -2.73996442204059
H         0.17334013706687   -0.65712896238944   -2.44825603296249
H        -1.53856123278868    0.04990802224491   -2.62031624850592
C        -1.04589913178413   -1.13144514668593   -0.77663294228782
N        -1.02903620807166   -1.44587732129259    0.31263095039015
C         1.18217677808209    0.58204945872610    2.07993315160261
H         0.99820850478338    1.44076734044524    2.74315910135859
H         2.28138837030407    0.28121883276231    2.03423319050029
H         0.66965612632219   -0.35990259317594    2.34785083987307
C         0.88905152524040    1.12792128260138    0.85114654846272
N         0.54279701086408    1.56927282149772   -0.17001582886051
C         2.71540669916287   -2.58480635206687    0.76822967397647
H         3.81625208475514   -2.58344467403843    1.01524783793783
H         2.26895939052925   -3.49392234599165    0.71456353293598
H         2.29875024422633   -2.07436953887471    1.63606016005318
C         2.61091295587726   -1.84002178544523   -0.41824839244013
N         2.46922319873656   -1.39830512304438   -1.48339903186050
C         4.04108118655570    0.96073998694057   -1.18132016791868
H         3.22160783680307    0.41087471328677   -1.62277928812507
H         5.00804771231690    0.76586103604039   -1.69060712135983
H         3.97411840904904    1.96843484921467   -1.25915612784334
C         4.12369542775731    0.65449251430378    0.20869890554288
N         4.06043157435399    0.50144907361391    1.32419360110051
C        -2.37224050229453    2.55696300117005   -0.92874791757890
H        -2.82183614776035    3.52858615645864   -0.98492928495121
H        -3.00014701321969    1.83859506257545   -1.54208892641496
H        -1.38002657896744    2.35638088865277   -1.48030842308481
C        -2.37053872423619    2.11161622382636    0.40330287463502
N        -2.47988766313447    1.88373002922109    1.54724284583450
36
 energy: -52.104957444554 gnorm: 0.180586052292 xtb: 6.4.0 (d4b70c2)
C        -4.19068423449123   -0.77607359417067    1.19515835663700
H        -5.22365271241526   -0.54958745617053    1.49170826366508
H        -3.60983735474171    0.10265360865536    1.46975813775305
H        -3.55585570257005   -1.50311710012528    1.70798866152382
C        -4.09292349875986   -0.90787965207950   -0.22640907882543
N        -4.16144041721762   -1.04028726916882   -1.34894102978276
C        -0.96769491973795   -0.88469155095146   -2.19528530890619
H        -1.34125509382983   -1.74654465755889   -2.83331805290236
H         0.16481648549271   -0.74350461381008   -2.42418047163302
H        -1.53877448988673    0.13004347489302   -2.18822022237521
C        -0.98202692768722   -1.17247133368763   -0.78562778779771
N        -1.06483017390183   -1.37317820981320    0.32442835310806
C         1.20800260000658    0.60795507739583    2.14456643104570
H         0.92703730763809    1.14433506183105    3.05132042987560
H         2.31187706767906    0.44939337389035    2.24522951381161
H         0.49378046489449   -0.23659729803674    2.15942959119015
C         0.79714274790959    1.10179477618305    0.83867291211809
N         0.53665057188434    1.56052411715993   -0.18517107880486
C         2.80197883517733   -2.59411313002638    0.79675839967748
H         3.85958504983857   -2.85377922222754    0.99616533556074
H         2.38730921587099   -3.52900928176809    0.67011892294325
H         2.24390484765751   -2.03128117823807    1.51046700788962
C         2.55778510379298   -1.95831768984975   -0.50666785484492
N         2.48975557534297   -1.32817664657393   -1.46125186971839
C         4.10653629244214    0.97206887100266   -1.19597820701538
H         3.41508425563484    0.32477859597334   -1.72788693146641
H         5.11281871707183    0.72416892391727   -1.57671922008777
H         3.68043840996550    1.89213167948454   -1.34527148586564
C         4.04723770744567    0.70107368816110    0.21683758841983
N         4.14162630767578    0.46345296867191    1.32181591925990
C        -2.40945959303581    2.54040003603692   -0.93680365403917
H        -2.46828714594401    3.59019291830265   -1.10434607900864
H        -3.23648584797076    1.98500221412359   -1.42981688811203
H        -1.30155075892107    2.41679892271998   -1.14356667347397
C        -2.43802926711614    2.22789494063752    0.45153436690684
N        -2.45498760885494    1.87071876819046    1.52851781986405
36
 energy: -52.113730104982 gnorm: 0.214300152038 xtb: 6.4.0 (d4b70c2)
C        -4.19478359714864   -0.70137451170815    1.18711806014321
H        -5.26810700950234   -0.92399061869644    1.42531154615065
H        -3.96401547555934    0.32306723791820    1.36750833486339
H        -3.71670952490782   -1.43312548884496    1.82673023340570
C        -4.01725516245301   -0.95070638541946   -0.22949335860832
N        -4.19359886399404   -1.07179127079212   -1.35735418773355
C        -0.93366119005578   -0.92493022740258   -2.19765165561819
H        -1.53366972814889   -1.64934008538435   -2.81848395066302
H         0.08388878974124   -0.68412823600558   -2.61542246992509
H        -1.57737858928237    0.04542139537532   -2.33412133029129
C        -0.94513431506656   -1.24046726961678   -0.79515578618093
N        -1.08807257928260   -1.30795018333964    0.35178176282870
C         1.14248069243633    0.60579080894240    2.17848289301643
H         0.75854750373994    1.28436818318141    2.92763945501001
H         2.23523452645437    0.42056770775956    2.19364117398983
H         0.81177081148554   -0.43845143096070    2.24938149501941
C         0.75361435035546    1.14455346999492    0.85880387919775
N         0.53391861677862    1.52820359185373   -0.17336593699699
C         2.82571283628414   -2.64698209198012    0.73034406707707
H         3.90626672174034   -2.59144775513820    0.95862237621306
H         2.35245561346536   -3.58852041037473    0.83367428809191
H         2.44348373457441   -2.01607787747091    1.50683034030789
C         2.56655249340405   -2.03795970858123   -0.54963015575643
N         2.48203445699585   -1.31720288653045   -1.42004475870966
C         4.13043413607166    0.98626708922923   -1.20856599489539
H         3.67765248857086    0.15463720247631   -1.71124597686265
H         5.21972785324688    1.07800241568754   -1.43851178802781
H         3.79553421727060    1.96399356774346   -1.51956026868097
C         4.01316493381322    0.74033709528370    0.20785705132045
N         4.21387829329552    0.42432661383070    1.32085890297058
C        -2.39584044716667    2.58295529696109   -0.93423179592516
H        -2.46589365626346    3.61467588555946   -1.14069330571133
H        -3.16305476167700    2.05184889962616   -1.54780623208171
H        -1.52325626402503    2.01290530619598   -1.27084632494465
C        -2.51674504601610    2.32939143844020    0.51112581895740
N        -2.43564959728540    1.86823496174539    1.53531760064687
36
 energy: -52.112958222047 gnorm: 0.168570150459 xtb: 6.4.0 (d4b70c2)
C        -4.22505675394585   -0.66850250514832    1.16079435591386
H        -5.25628948049087   -1.04485542390718    1.23630208950122
H        -4.20247287146037    0.36664776807878    1.43669135466801
H        -3.47865467558994   -1.15910878597094    1.77959470401960
C        -4.01163114675702   -0.98086801292075   -0.21529488808613
N        -4.18711131618309   -1.10528819330053   -1.35507013865916
C        -0.93450474861833   -0.94524787436451   -2.19110004409363
H        -1.41839373919385   -1.82013325785257   -2.67106060757528
H         0.06459718890046   -0.90700929504728   -2.63167013544433
H        -1.50579555158906    0.01169839377725   -2.35715620772684
C        -0.93363521018150   -1.26870642730454   -0.80147976368663
N        -1.08810867717018   -1.26664120340461    0.34267368273929
C         1.06805889172974    0.59124275624953    2.14498935000875
H         0.64305171886158    1.27418643817384    2.89567521593779
H         2.12146200013153    0.83882967637870    2.21349710379644
H         0.69441669262108   -0.38080648835895    2.42915915854877
C         0.74644088277087    1.15631847853056    0.91771091681094
N         0.52958657518856    1.49888312758582   -0.15626251759066
C         2.83835592071781   -2.69064609333516    0.68811673314478
H         3.94053184755199   -2.70496748334004    0.68797414218609
H         2.53564839359300   -3.71173814504772    0.91863774156682
H         2.43262043097061   -1.99074926411933    1.37947135835950
C         2.59914027331390   -2.07796288771457   -0.54416259494451
N         2.44712452145113   -1.34220486376838   -1.41177444234414
C         4.18470276919803    1.03337526944877   -1.17921729713780
H         3.90621121334406    0.18904034991296   -1.78790118121074
H         5.26787937808328    1.17843386422979   -1.27083763672528
H         3.53617607902017    1.90054137219461   -1.54043480483103
C         4.05746853330209    0.76388428732578    0.19680856599907
N         4.24386122070129    0.40648847796585    1.27340010199255
C        -2.40848090243207    2.60103902146965   -0.90751361788437
H        -2.23704670571998    3.61901548234458   -1.20422126216592
H        -3.36529153281197    2.24776127889791   -1.32389885012134
H        -1.50700688490683    2.11620821478291   -1.21972208120292
C        -2.55705736497030    2.37686462007385    0.49386730294801
N        -2.43585861697232    1.90076883083288    1.55482455974844
36
 energy: -52.137766573832 gnorm: 0.209483500285 xtb: 6.4.0 (d4b70c2)
C        -4.25736510567153   -0.67961124631325    1.14199631383806