 9
 energy=-.13217573899054758E-001 cutoff=4.00000000 nneightol=1.20000000 pbc="T T T" Lattice="200.00000000       0.00000000       0.00000000       0.00000000     200.00000000       0.00000000       0.00000000       0.00000000     200.00000000" Properties=species:S:1:pos:R:3:forces:R:3:Z:I:1:map_shift:I:3:n_neighb:I:1:force:R:3
 O               0.53651023     -2.80324355     -0.67145109      0.00231296      0.02906427     -0.00186611       8       0       0       0       5      0.00101204      0.03116667     -0.00103778
 H              -0.38269553     -2.48714779     -0.70557969     -0.00697900     -0.00576184      0.00162288       1       0       0       0       5     -0.00560417     -0.00691070      0.00093465
 H               0.58746220     -2.96208378      0.25454053      0.00016712     -0.00126087      0.00384277       1       0       0       0       5      0.00092228     -0.00535162      0.00325362
 O              -0.94394896      2.85508400      1.29733895     -0.00596907      0.01106089      0.01223485       8       0       0       0       5     -0.01113724      0.01997589      0.01539352
 H              -0.16476064      3.08197916      0.69116736     -0.00243072     -0.01317125     -0.00325039       1       0       0       0       5      0.00142215     -0.00945972     -0.00456390
 H              -1.04722095      1.87739579      1.22650502      0.01069682     -0.00245849     -0.01448200       1       0       0       0       5      0.01111745     -0.01406767     -0.01340933
 O               0.38169013      0.02156768     -0.60958919     -0.00296911      0.02836081      0.00416159       8       0       0       0       8      0.00630551      0.01396476     -0.00668082
 H               1.00204643      0.24956620     -1.29409290      0.00205380      0.00036972     -0.00096262       1       0       0       0       8     -0.00006676     -0.00209480      0.00067123
 H               0.41391654     -0.92503226     -0.43127466      0.00311721     -0.04620324     -0.00130046       1       0       0       0       8     -0.00397125     -0.02722281      0.00543880
 9
 energy=-.10652530043601560E-001 cutoff=4.00000000 nneightol=1.20000000 pbc="T T T" Lattice="200.00000000       0.00000000       0.00000000       0.00000000     200.00000000       0.00000000       0.00000000       0.00000000     200.00000000" Properties=species:S:1:pos:R:3:forces:R:3:Z:I:1:map_shift:I:3:n_neighb:I:1:force:R:3
 O              -0.12955075     -2.10271254      2.16447105     -0.00648535     -0.00971311      0.01468049       8       0       0       0       5     -0.00206233     -0.00658979      0.01152494
 H              -0.47159449     -2.89243680      1.80150135      0.00096159      0.00128709     -0.00018666       1       0       0       0       5     -0.00041889      0.00023720      0.00198670
 H               0.06315883     -1.58820707      1.37188503      0.01013323      0.01437298     -0.02284374       1       0       0       0       5      0.00162828      0.00539938     -0.01347558
 O              -0.43162698      2.61486597     -1.89055256      0.00600044     -0.01576652      0.00608374       8       0       0       0       5      0.01043577     -0.02949946      0.00714067
 H              -1.30769057      2.49582285     -1.46761368     -0.00584309      0.00528156     -0.00182497       1       0       0       0       5     -0.00949019      0.01077032     -0.00084689
 H              -0.00439265      3.45744646     -1.53833051      0.00058107      0.00315577     -0.00105878       1       0       0       0       5      0.00125536      0.00231954      0.00099048
 O               0.56032743     -0.57786315     -0.21290171     -0.00193964     -0.00997074      0.01483989       8       0       0       0       8      0.00038114     -0.00848564      0.00842778
 H               0.31564281     -0.26668884     -1.15780178     -0.00286267      0.01097655     -0.00959536       1       0       0       0       8     -0.00231209      0.01852050     -0.01339008
 H               1.41837426     -0.16282284      0.02174422     -0.00054456      0.00037692     -0.00009359       1       0       0       0       8      0.00058296      0.00732796     -0.00235801
 9
 energy=-.62033832922758748E-003 cutoff=4.00000000 nneightol=1.20000000 pbc="T T T" Lattice="200.00000000       0.00000000       0.00000000       0.00000000     200.00000000       0.00000000       0.00000000       0.00000000     200.00000000" Properties=species:S:1:pos:R:3:forces:R:3:Z:I:1:map_shift:I:3:n_neighb:I:1:force:R:3
 O              -1.49177964      1.62242690      2.17935283     -0.01513094      0.01656768      0.00411685       8       0       0       0       5     -0.00794654      0.00361586      0.00228668
 H              -1.60134314      1.35832876      3.08665432      0.00117448     -0.00160900      0.00025300       1       0       0       0       5     -0.00087869      0.00031467      0.00034002
 H              -0.77266403      1.00661585      1.96105801      0.02024075     -0.02555780     -0.01080069       1       0       0       0       5      0.00892925     -0.00347425     -0.00160319
 O               0.12297875     -0.15377361      1.19071754     -0.00757447      0.01000108      0.00952028       8       0       0       0       5      0.00101948     -0.00050569     -0.00021460
 H               0.19030448     -1.14669370      1.27982075     -0.00004679     -0.00004062     -0.00062683       1       0       0       0       5     -0.00142959      0.00146555     -0.00022909
 H               0.43393235      0.01674861      0.33276027      0.00238958     -0.00083561     -0.00792414       1       0       0       0       7      0.00098592     -0.00250388     -0.00344399
 O               1.29720504     -1.36485905     -3.30053477     -0.00036715      0.00103975      0.00696101       8       0       0       0       3     -0.00092091      0.00108688      0.00354902
 H               1.94601523     -0.73815054     -3.83482183     -0.00007610      0.00039441     -0.00108089       1       0       0       0       3     -0.00000634     -0.00019415     -0.00039192
 H               0.94030852     -2.14453836     -3.92931958     -0.00060884      0.00004011     -0.00041858       1       0       0       0       2      0.00024742      0.00019501     -0.00029292
 9
 energy=-.30677780814560851E-002 cutoff=4.00000000 nneightol=1.20000000 pbc="T T T" Lattice="200.00000000       0.00000000       0.00000000       0.00000000     200.00000000       0.00000000       0.00000000       0.00000000     200.00000000" Properties=species:S:1:pos:R:3:forces:R:3:Z:I:1:map_shift:I:3:n_neighb:I:1:force:R:3
 O              -0.11158202     -1.07097892      0.74848010     -0.00180800      0.00823216      0.01356000       8       0       0       0       7     -0.00391417      0.00027325      0.00497584
 H               0.54165415     -1.37841838      0.01098750      0.00533967      0.00089783     -0.00898652       1       0       0       0       7      0.00539955      0.00544208     -0.01521443
 H              -0.60391914     -1.81240499      0.97481980      0.00119299      0.00179617      0.00008999       1       0       0       0       5      0.00130063      0.00231698      0.00001242
 O              -0.56994326      0.85422317      2.60501213     -0.00103513      0.01451799      0.01061351       8       0       0       0       5     -0.00170838      0.00371758      0.00320178
 H              -1.06790406      0.31599248      3.17400107     -0.00041395     -0.00195455     -0.00152415       1       0       0       0       5      0.00025624     -0.00088337     -0.00020928
 H              -0.31134954      0.13693299      1.89420332      0.00032139     -0.02153916     -0.01743157       1       0       0       0       5      0.00197718     -0.00479484     -0.00520964
 O               0.72277199      0.29964076     -3.29111103     -0.00387774     -0.00951720      0.01322576       8       0       0       0       4     -0.00133236     -0.01163935      0.02225667
 H               1.04028889      1.08920537     -3.83508282      0.00234947      0.00147838      0.00023448       1       0       0       0       2      0.00030556      0.00034489     -0.00057368
 H              -0.25354412      0.33292819     -3.20920370     -0.00206820      0.00608786     -0.00978253       1       0       0       0       4     -0.00228424      0.00522278     -0.00923968
 9
 energy=-.40568099965698767E-002 cutoff=4.00000000 nneightol=1.20000000 pbc="T T T" Lattice="200.00000000       0.00000000       0.00000000       0.00000000     200.00000000       0.00000000       0.00000000       0.00000000     200.00000000" Properties=species:S:1:pos:R:3:forces:R:3:Z:I:1:map_shift:I:3:n_neighb:I:1:force:R:3
 O               2.41745382      1.28149505     -0.44223356     -0.00812212     -0.00768297     -0.00672138       8       0       0       0       5     -0.00779062     -0.00563881     -0.00515597
 H               2.73291300      1.06311726      0.49344345     -0.00097702     -0.00080887      0.00197255       1       0       0       0       5      0.00219575     -0.00084378      0.00393862
 H               3.19121320      1.67355060     -0.82310587      0.00087726      0.00068700     -0.00114003       1       0       0       0       5      0.00262499      0.00204274     -0.00044111
 O              -2.76841745     -0.76278614      1.76808622     -0.00204506      0.00296602      0.01137353       8       0       0       0       3     -0.00030400     -0.00090970      0.00025671
 H              -2.47176132     -1.55621570      1.34265215      0.00352961      0.00280662     -0.00800847       1       0       0       0       3      0.00590656      0.00247864     -0.00593902
 H              -2.41650420     -0.01865256      1.27503576      0.00156786     -0.00661956     -0.00875204       1       0       0       0       5      0.00905358     -0.00200838     -0.01070523
 O               0.20807794     -0.55393987     -1.25914416     -0.01401868     -0.00858800      0.00232325       8       0       0       0       8     -0.01677033     -0.00222217      0.02386229
 H               0.24069540     -0.72197323     -2.23743996     -0.00123721      0.00051062      0.00142285       1       0       0       0       6     -0.00369676     -0.00295080     -0.00668697
 H               0.99169324      0.11945001     -1.10955448      0.02042639      0.01672863      0.00752973       1       0       0       0       6      0.00878083      0.01005226      0.00087068
 9
 energy=-.10412735653420713E-001 cutoff=4.00000000 nneightol=1.20000000 pbc="T T T" Lattice="200.00000000       0.00000000       0.00000000       0.00000000     200.00000000       0.00000000       0.00000000       0.00000000     200.00000000" Properties=species:S:1:pos:R:3:forces:R:3:Z:I:1:map_shift:I:3:n_neighb:I:1:force:R:3
 O              -0.49678048     -1.50750951      2.32266748      0.00840082      0.01297687     -0.01398423       8       0       0       0       5      0.01024300      0.01518940     -0.01501942
 H              -0.48041651     -2.14457639      3.06617124      0.00162545      0.00024271      0.00211602       1       0       0       0       5     -0.00000238     -0.00180006      0.00472353
 H              -0.36951518     -2.00545290      1.43436547     -0.00898138     -0.01110562      0.00008896       1       0       0       0       6     -0.00967979     -0.01390096      0.00250443
 O               0.91666102      0.65801050      0.24091950     -0.00353732      0.01066545     -0.00821210       8       0       0       0       8     -0.00057304      0.01363164     -0.00462897
 H               1.82692377      0.22991094      0.03991601     -0.00369519      0.00115340     -0.00033579       1       0       0       0       8     -0.00608165      0.00170090     -0.00401112
 H               0.41641240     -0.02923791      0.60561742      0.00099245     -0.01076212      0.01575726       1       0       0       0       8      0.00027876     -0.01630182      0.01733559
 O              -0.50657932      0.94469565     -2.58065695     -0.00933619      0.00402789     -0.01163270       8       0       0       0       5     -0.00806889     -0.00143473     -0.01050331
 H               0.04402773      1.54358649     -3.14597974      0.00059392     -0.00115288      0.00120225       1       0       0       0       5      0.00115510     -0.00075296      0.00207962
 H              -0.06112615      0.89456368     -1.72911190      0.01393847     -0.00604466      0.01500187       1       0       0       0       6      0.01272888      0.00366858      0.00751964
 9
 energy=-.46056463876678055E-002 cutoff=4.00000000 nneightol=1.20000000 pbc="T T T" Lattice="200.00000000       0.00000000       0.00000000       0.00000000     200.00000000       0.00000000       0.00000000       0.00000000     200.00000000" Properties=species:S:1:pos:R:3:forces:R:3:Z:I:1:map_shift:I:3:n_neighb:I:1:force:R:3
 O               1.88400917      2.60568350     -0.29230845     -0.01212584     -0.00293569     -0.00274285       8       0       0       0       5     -0.00100127     -0.00067147     -0.00062632
 H               1.56311176      3.32839303     -0.79727569      0.00506405      0.00367359     -0.00084846       1       0       0       0       5     -0.00344074     -0.00685693      0.00108060
 H               2.53276239      2.91022987      0.34392186      0.00217515     -0.00238187      0.00211602       1       0       0       0       3     -0.00035139     -0.00019605     -0.00022737
 O              -0.73185795     -2.62597171      0.71091820      0.00839414     -0.01525436      0.00990389       8       0       0       0       5     -0.00027929     -0.00678886      0.00115627
 H              -1.49888400     -3.24101553      0.46455891     -0.00115494      0.00104644     -0.00116728       1       0       0       0       5      0.00191052     -0.00001897      0.00205174
 H              -1.02469979     -1.80656048      0.26032810     -0.01259172      0.02405473     -0.01255418       1       0       0       0       5     -0.00944862      0.01031286     -0.00692011
 O              -1.15574651     -0.04936030     -0.33811787     -0.00119351     -0.01455964      0.00510621       8       0       0       0       7     -0.00421074     -0.01329978      0.00089990
 H              -0.20299923     -0.08867021     -0.28954996      0.01020625      0.00682731     -0.00162494       1       0       0       0       8      0.01657963      0.01887263     -0.00108862
 H              -1.31221747      0.00326370     -1.25975741      0.00122590     -0.00047000      0.00181263       1       0       0       0       7      0.00024189     -0.00135343      0.00367392
 9
 energy=-.52020242270860440E-002 cutoff=4.00000000 nneightol=1.20000000 pbc="T T T" Lattice="200.00000000       0.00000000       0.00000000       0.00000000     200.00000000       0.00000000       0.00000000       0.00000000     200.00000000" Properties=species:S:1:pos:R:3:forces:R:3:Z:I:1:map_shift:I:3:n_neighb:I:1:force:R:3
 O               1.00249871      0.49145754     -0.22977206      0.00791951      0.00452000      0.01823375       8       0       0       0       8      0.00088004      0.01320808      0.01644492
 H               1.38069039     -0.39733277      0.04508682      0.00332238      0.00128349     -0.00126961       1       0       0       0       8      0.00568850     -0.00984932      0.00381681
 H               0.48759213      0.24775367     -1.03005832     -0.01842504      0.00125573     -0.01787740       1       0       0       0       8     -0.01747789      0.00480581     -0.03591985
 O              -0.12402021     -1.07330906      2.78105855     -0.01211093     -0.00367308      0.01803680       8       0       0       0       5     -0.01072132     -0.00754756      0.02436753
 H               0.78694578     -1.32427698      3.07191551      0.00027871      0.00381912     -0.00857617       1       0       0       0       5     -0.00207409      0.00737717     -0.01082499
 H              -0.00182176     -0.14289084      2.55513822      0.01097090     -0.00259013     -0.01581589       1       0       0       0       5      0.01229031     -0.00433945     -0.00774447
 O              -0.86515881      0.60062854     -2.50426919      0.00738421     -0.00383454      0.00695895       8       0       0       0       5      0.01072088     -0.00192154      0.01050431
 H              -1.48452322     -0.00715632     -2.88179391     -0.00038258     -0.00149638     -0.00066540       1       0       0       0       5      0.00077254      0.00115936      0.00114984
 H              -1.38032775      1.32582606     -2.50666787      0.00104438      0.00071682      0.00097291       1       0       0       0       5     -0.00007896     -0.00289255     -0.00179411
 9
 energy=-.32595673460200647E-002 cutoff=4.00000000 nneightol=1.20000000 pbc="T T T" Lattice="200.00000000       0.00000000       0.00000000       0.00000000     200.00000000       0.00000000       0.00000000       0.00000000     200.00000000" Properties=species:S:1:pos:R:3:forces:R:3:Z:I:1:map_shift:I:3:n_neighb:I:1:force:R:3
 O               1.10782975     -0.87616884     -0.95618966      0.01160750      0.00827381     -0.00061089       8       0       0       0       7     -0.00143471      0.00156033      0.00040495
 H               0.80922252     -0.52305405     -1.81338646     -0.00067363      0.00014552     -0.00095645       1       0       0       0       7     -0.00073956     -0.00409164      0.00043856
 H               0.45865994     -1.43488901     -0.51189759     -0.00509541     -0.00088035      0.00229754       1       0       0       0       8     -0.00731635      0.00208447     -0.00203313
 O              -2.88050751     -0.37326980      0.42773376      0.00954136     -0.00727468     -0.00441561       8       0       0       0       5      0.01076472     -0.00372422     -0.00289748
 H              -2.34292035     -0.15294089      1.21194886     -0.00612231      0.00652803      0.00695021       1       0       0       0       7     -0.00309530      0.00149686      0.00226643
 H              -3.55110886      0.33030550      0.21049894      0.00026277      0.00123979     -0.00038104       1       0       0       0       3     -0.00090604     -0.00001205     -0.00061298
 O               1.84979275      1.21101183      0.58079978     -0.00147993      0.01718525      0.01370038       8       0       0       0       6      0.00309471      0.00339867      0.00130616
 H               2.00610093      0.44687099     -0.03915160     -0.00910068     -0.02550894     -0.01722845       1       0       0       0       5      0.00114357     -0.00378495     -0.00060382
 H               1.39587830      1.94371660      0.11105111      0.00106032      0.00029105      0.00064380       1       0       0       0       6     -0.00151105      0.00307252      0.00173130
 9
 energy=-.35090247021154486E-002 cutoff=4.00000000 nneightol=1.20000000 pbc="T T T" Lattice="200.00000000       0.00000000       0.00000000       0.00000000     200.00000000       0.00000000       0.00000000       0.00000000     200.00000000" Properties=species:S:1:pos:R:3:forces:R:3:Z:I:1:map_shift:I:3:n_neighb:I:1:force:R:3
 O               0.13618429      1.24738082      0.45422531     -0.00693889      0.00109580     -0.01041451       8       0       0       0       7     -0.00475491     -0.00118325     -0.00125433
 H               1.03877486      0.90313884      0.76661573      0.00488304     -0.00543583      0.00092971       1       0       0       0       8      0.00530718     -0.02204691      0.00613835
 H              -0.52812184      0.70512760      0.85511833      0.00065409     -0.00106804     -0.00109169       1       0       0       0       8      0.00368171     -0.00348946      0.00021287
 O              -1.07672883      1.64439415     -2.05168079     -0.00288889      0.00079653     -0.01275010       8       0       0       0       5     -0.00679442      0.00041544     -0.00484039
 H              -0.68637738      1.46071908     -1.14333089      0.00697078      0.00025094      0.02124143       1       0       0       0       5      0.00419126     -0.00113265      0.00709725
 H              -2.09025674      1.35292140     -2.07870511     -0.00127681     -0.00043246      0.00103461       1       0       0       0       5      0.00178384      0.00115028     -0.00206496
 O               1.01181522     -2.80030296      1.47207125     -0.00025557      0.01688804      0.00197512       8       0       0       0       5     -0.00314001      0.03166567     -0.00643144
 H               1.01751202     -2.78197494      2.45267746      0.00055639     -0.00684273      0.00206100       1       0       0       0       4     -0.00076506      0.00012240      0.00020009
 H               0.11707746     -3.09201126      1.13804546     -0.00170361     -0.00525328     -0.00298454       1       0       0       0       5      0.00049042     -0.00550154      0.00094257
 9
 energy=-.82082889166223950E-003 cutoff=4.00000000 nneightol=1.20000000 pbc="T T T" Lattice="200.00000000       0.00000000       0.00000000       0.00000000     200.00000000       0.00000000       0.00000000       0.00000000     200.00000000" Properties=species:S:1:pos:R:3:forces:R:3:Z:I:1:map_shift:I:3:n_neighb:I:1:force:R:3
 O              -3.09522301     -0.70877270     -0.78129918      0.00796939      0.00524454      0.00375073       8       0       0       0       5      0.00168862      0.00316338      0.00229072
 H              -3.80785586     -1.04199599     -0.26692908     -0.00168562     -0.00023089      0.00126704       1       0       0       0       5     -0.00146808     -0.00060383      0.00052057
 H              -2.56652409     -1.49505136     -1.03012603      0.00064689     -0.00066232     -0.00115597       1       0       0       0       5      0.00204938     -0.00034241     -0.00053728
 O              -0.78186586      0.47650045      0.70743753      0.01186101      0.00232376      0.00529287       8       0       0       0       6      0.00026999     -0.00332040      0.00293780
 H              -1.49693985      0.15175563      0.05634495     -0.01461827     -0.00834889     -0.00967866       1       0       0       0       5     -0.00149288     -0.00070341     -0.00330812
 H              -0.70478656      1.34530954      0.73077493      0.00030288      0.00070757     -0.00015684       1       0       0       0       6     -0.00104702      0.00180667     -0.00190368
 O               3.98013260      0.27222968      0.11359667      0.00662933     -0.00275725     -0.00216950       8       0       0       0       2     -0.00000878      0.00000488      0.00005165
 H               3.21670812      0.25718651      0.65199510     -0.00811646      0.00229702     -0.00030699       1       0       0       0       4      0.00004666     -0.00000539     -0.00008968
 H               3.72362305      0.14848852     -0.77283644     -0.00299019      0.00142696      0.00315680       1       0       0       0       2     -0.00003789      0.00000051      0.00003803
 9
 energy=-.12243686358266446E-002 cutoff=4.00000000 nneightol=1.20000000 pbc="T T T" Lattice="200.00000000       0.00000000       0.00000000       0.00000000     200.00000000       0.00000000       0.00000000       0.00000000     200.00000000" Properties=species:S:1:pos:R:3:forces:R:3:Z:I:1:map_shift:I:3:n_neighb:I:1:force:R:3
 O               0.57248361      0.15716320     -1.02738641      0.01172012      0.00065306      0.00550525       8       0       0       0       8     -0.00248018      0.00242402      0.00038352
 H              -0.35144071      0.13040178     -1.31601664     -0.01646535      0.00133029     -0.00649461       1       0       0       0       5      0.00017156     -0.00247852     -0.00087908
 H               0.79448203     -0.80716408     -1.12066241      0.00066386     -0.00272177     -0.00072711       1       0       0       0       8      0.00103630     -0.00081407      0.00037715
 O               1.64462700     -0.47568162      3.11659978      0.00222812     -0.00243998      0.01225902       8       0       0       0       4     -0.00010466      0.00093353      0.00056617
 H               1.56096702     -1.31281282      2.79547023     -0.00034864      0.00430557     -0.00688130       1       0       0       0       4     -0.00003252     -0.00093602     -0.00042346
 H               2.39110099     -0.08892164      2.52073857     -0.00545228     -0.00024580     -0.00826558       1       0       0       0       4     -0.00012250      0.00003781     -0.00064926
 O              -2.15691601      0.39132918     -2.00286745      0.00710036     -0.00021340      0.00407931       8       0       0       0       5      0.00123830     -0.00014107      0.00182013
 H              -2.82428380      0.45171756     -1.35839479     -0.00078830     -0.00027922      0.00100067       1       0       0       0       5      0.00101997      0.00039139     -0.00010155
 H              -2.52638914      0.47093953     -2.89183962      0.00134263     -0.00038875     -0.00047565       1       0       0       0       5     -0.00072627      0.00058294     -0.00109362
 9
 energy=-.94974158649496743E-003 cutoff=4.00000000 nneightol=1.20000000 pbc="T T T" Lattice="200.00000000       0.00000000       0.00000000       0.00000000     200.00000000       0.00000000       0.00000000       0.00000000     200.00000000" Properties=species:S:1:pos:R:3:forces:R:3:Z:I:1:map_shift:I:3:n_neighb:I:1:force:R:3
 O              -0.04693978      0.83189536      1.38883815     -0.00949046     -0.00314446      0.00318560       8       0       0       0       5     -0.00406821     -0.00128306      0.00224978
 H               0.24666485      1.76998227      1.51111720     -0.00005296     -0.00055999      0.00009564       1       0       0       0       5     -0.00126530     -0.00291344     -0.00066237
 H               0.74086016      0.34546062      1.21651834      0.00597473     -0.00213710     -0.00305601       1       0       0       0       7      0.00000867      0.00055517     -0.00071391
 O              -1.99513170     -0.79042667      1.43208098     -0.00759761     -0.01005816     -0.00101147       8       0       0       0       5     -0.00492105     -0.00774702     -0.00058445
 H              -1.42191968      0.03360044      1.47879911      0.01454730      0.01496948     -0.00027562       1       0       0       0       5      0.01027642      0.01092760     -0.00059868
 H              -2.23477941     -0.89100986      2.30558619     -0.00040983      0.00060112     -0.00050805       1       0       0       0       5     -0.00003053      0.00046076      0.00030963
 O               2.00620058     -0.13264621     -2.81839246     -0.00179514      0.00781255      0.01102026       8       0       0       0       3     -0.00008960      0.00001918     -0.00004511
 H               2.16346902      0.32659870     -3.63590764      0.00096519     -0.00154729     -0.00147170       1       0       0       0       2      0.00069106      0.00027773     -0.00042644
 H               1.07514030     -0.13722808     -2.91622310     -0.00214327     -0.00593822     -0.00798019       1       0       0       0       3     -0.00060145     -0.00029691      0.00047155
 9
 energy=-.67688703643862258E-002 cutoff=4.00000000 nneightol=1.20000000 pbc="T T T" Lattice="200.00000000       0.00000000       0.00000000       0.00000000     200.00000000       0.00000000       0.00000000       0.00000000     200.00000000" Properties=species:S:1:pos:R:3:forces:R:3:Z:I:1:map_shift:I:3:n_neighb:I:1:force:R:3
 O               0.89002886      1.08172370      0.75735747     -0.00451640      0.00721246     -0.00623698       8       0       0       0       7     -0.00790964      0.00389118     -0.01019552
 H               0.69341271      0.88837081      1.65543281     -0.00184759     -0.00095491     -0.00117397       1       0       0       0       7     -0.00228111     -0.00572065      0.00205074
 H               1.20494397      0.24479694      0.34523726      0.00109786     -0.01018877     -0.00101919       1       0       0       0       8      0.00376222     -0.01642772      0.00469016
 O              -0.11309938     -2.76134293      0.76287533      0.00397801      0.00372501      0.00570836       8       0       0       0       5      0.00738443      0.01554973      0.00134748
 H              -0.08665555     -3.74087405      0.49602464      0.00048182     -0.00032344     -0.00175915       1       0       0       0       3     -0.00113563      0.00025389      0.00042633
 H              -0.98062706     -2.67479112      1.12868871     -0.00224200     -0.00070654     -0.00266161       1       0       0       0       5      0.00005153     -0.00011757     -0.00113734
 O              -0.71666666      1.81697095     -1.61072376     -0.00492983     -0.00019283     -0.01163373       8       0       0       0       5     -0.00453758      0.00330143     -0.00498619
 H              -1.53153958      1.37781824     -1.39103687     -0.00080167      0.00116162      0.00106598       1       0       0       0       5     -0.00118622      0.00124537     -0.00035378
 H              -0.25618104      1.72427930     -0.79784112      0.00877980      0.00026739      0.01771130       1       0       0       0       5      0.00585202     -0.00197566      0.00815813
 9
 energy=.16496555197753631E-003 cutoff=4.00000000 nneightol=1.20000000 pbc="T T T" Lattice="200.00000000       0.00000000       0.00000000       0.00000000     200.00000000       0.00000000       0.00000000       0.00000000     200.00000000" Properties=species:S:1:pos:R:3:forces:R:3:Z:I:1:map_shift:I:3:n_neighb:I:1:force:R:3
 O               2.25044939     -0.02927820     -1.70873492      0.00938144      0.00801979     -0.00480385       8       0       0       0       5     -0.00104599      0.00198860      0.00026304