9
energy=-0.0838693557 Properties=species:S:1:pos:R:3:forces:R:3 pbc="T T T" Lattice="200.000 0.000 0.000 0.000 200.000 0.000 0.000 0.000 200.000"
O    0.6492225265    0.8327420948    1.3571488016    0.0167270842    0.0797278581   -0.0778334691
H    1.4808319188    1.0878756098    1.8007102594   -0.0042875720   -0.0014845551   -0.0017658338
H    0.4357177431   -0.1378327059    1.4905458356   -0.0348693037   -0.1125639332   -0.0371431875
O   -0.3466185242   -1.5642566333   -0.0504717987    0.0439956921   -0.0772637126    0.1661092174
H   -0.6636010802   -2.3841595548   -0.4583274814    0.0001342116    0.0041975833   -0.0040386891
H   -0.4494432729   -0.7083980897   -0.5257014817   -0.0254575227    0.2212516710   -0.2059206959
O   -0.3727772240    0.7490624060   -1.2823570148   -0.0663025848   -0.1358324185   -0.0171765131
H    0.0320159375    0.8598868522   -2.0989471075   -0.0028714082   -0.0091181609    0.0098576103
H    0.2784487079    1.0040629790   -0.5943494593    0.0729314035    0.0310851537    0.1679105324
9
energy=-0.0824168119 Properties=species:S:1:pos:R:3:forces:R:3 pbc="T T T" Lattice="200.000 0.000 0.000 0.000 200.000 0.000 0.000 0.000 200.000"
O    2.1980902975   -0.9714475154   -0.0379898363    0.1137749229   -0.1317273949    0.0827247361
H    1.4795083034   -0.4259069079   -0.3489232242   -0.1928476638    0.2080346571   -0.1139914098
H    2.2188716148   -0.9608004825    0.9405017364    0.0113020561    0.0033552899   -0.0041693012
O   -2.1967460070    0.4431266736    0.5409935434    0.1173287019    0.0034859019   -0.0763350301
H   -2.4918434332    1.3517777355    0.3736455674   -0.0178198031    0.0052491646    0.0049000088
H   -2.6015881296    0.2338823009    1.4083932906    0.0188801261   -0.0144711981    0.0040736562
O    0.1304056264    0.4235104539   -0.5831427109    0.2075651736   -0.0620355817   -0.0396376719
H    0.0613619806    1.2270570346   -1.0347446412    0.0057402453   -0.0222158756    0.0146141515
H   -0.7577840543    0.2378105102   -0.0667002351   -0.2639232449    0.0103255511    0.1278208605
9
energy=-0.0716263273 Properties=species:S:1:pos:R:3:forces:R:3 pbc="T T T" Lattice="200.000 0.000 0.000 0.000 200.000 0.000 0.000 0.000 200.000"
O    1.6897253942    0.7077070796   -0.7975699871    0.0837099829   -0.0851030067   -0.1060672693
H    0.8243111878    0.9290191519   -0.2324064931   -0.1980263802    0.0538322193    0.1873002512
H    2.2676564811    0.0818902677   -0.2700702127    0.0084923544    0.0088898470    0.0066925820
O   -1.1708688505   -1.4277492174   -0.1624243525   -0.0325280570    0.0846252957    0.0576194546
H   -0.3281869649   -1.3646504849   -0.6561752468    0.0517547678    0.0020836222   -0.0324982322
H   -1.4377273620   -2.3545835912   -0.0746552729    0.0006412332    0.0087875170    0.0009405096
O   -0.5154029505    0.8472306280    0.8896120253    0.1288133064    0.0968519206   -0.0191485493
H   -1.1465349940    0.1622051632    0.5863314303   -0.0443325067   -0.1695791785   -0.0823560399
H   -0.2343426676    0.5270564768    1.7642650064    0.0014732422   -0.0003877224   -0.0124816783
9
energy=-0.0630932720 Properties=species:S:1:pos:R:3:forces:R:3 pbc="T T T" Lattice="200.000 0.000 0.000 0.000 200.000 0.000 0.000 0.000 200.000"
O    2.0120904247   -0.6108572522   -1.7281288403    0.1197604515    0.0089227571   -0.1030354242
H    2.6730880391    0.0135997414   -2.1022830987    0.0018393673   -0.0186677530   -0.0081683954
H    1.5166036292   -0.3853652431   -0.8735297982   -0.1953879139    0.0098900062    0.1137070458
O    0.0530344276   -0.1367383639   -0.0193432114    0.1622294224   -0.0537807973   -0.0629282688
H   -0.7600699102    0.3610224075    0.4825844077   -0.1493872754    0.0721667573    0.1271477456
H   -0.2474257322   -0.9088905316   -0.5234284238   -0.0011287144    0.0121613189    0.0124950481
O   -1.9773382654    0.7663990821    1.6942749133    0.0759020563   -0.0363944822   -0.0980094313
H   -2.8197738955    0.4318274011    1.4113095953   -0.0174392798    0.0055607823    0.0027546801
H   -1.7559967428    0.1893092234    2.4498291930    0.0036113718    0.0001424391    0.0160380285
9
energy=-0.0603565141 Properties=species:S:1:pos:R:3:forces:R:3 pbc="T T T" Lattice="200.000 0.000 0.000 0.000 200.000 0.000 0.000 0.000 200.000"
O   -0.4485003630    0.1169486515    0.8109776437   -0.0596172019    0.1556674525   -0.0246455683
H   -0.0990720140   -0.7424443659    0.5309985662    0.1109353963   -0.2024851876   -0.0251258504
H    0.1419968565    0.3099007829    1.5773787496   -0.0061176833    0.0016408782   -0.0099352576
O    0.7860438190   -2.0263495250    0.4875105495   -0.0679537474    0.0986768898    0.0144794256
H    1.0479850247   -2.1366638226    1.3996026385    0.0055607823   -0.0148476076    0.0044798905
H    1.5607282556   -2.0682896473    0.0424393965    0.0033228940    0.0032725003   -0.0104854737
O   -0.4558006804    1.9242938546   -1.4057929889    0.0155130092    0.0295579184   -0.0846186109
H   -0.7072953109    1.5473009461   -0.5160381901    0.0000509078   -0.0685291603    0.1330278590
H   -0.0670598294    2.8537763852   -1.3309633114   -0.0016948713   -0.0029536835    0.0028251284
9
energy=-0.0585038269 Properties=species:S:1:pos:R:3:forces:R:3 pbc="T T T" Lattice="200.000 0.000 0.000 0.000 200.000 0.000 0.000 0.000 200.000"
O   -0.1098083601    1.5910116393    0.1036524517   -0.0726794353   -0.1012762753    0.0203173729
H    0.7367833459    1.5226765737    0.4733097702    0.0119047227   -0.0216702875   -0.0316250855
H   -0.6084480935    2.1701616637    0.7821321727   -0.0053602363    0.0088883043   -0.0013323458
O    1.1418079129   -0.8872938707   -0.8571935098    0.1018167212    0.1134555918   -0.0186718668
H    1.6724379129   -0.6600960457   -0.0103572009    0.0178629977   -0.0388329166    0.0129419058
H    0.2078392988   -0.8831859945   -0.6181132456   -0.2105954760   -0.1144233551    0.1241477822
O   -0.9814079163   -0.7957738887    0.6654223634    0.0846350659   -0.1581377686   -0.0779975055
H   -1.9511502557   -0.8774595547    0.4673266967    0.0206644719    0.0167589659   -0.0151000900
H   -0.8605828531    0.1892549880    0.3045484883    0.0517496256    0.2952356842   -0.0126811960
9
energy=-0.0578769310 Properties=species:S:1:pos:R:3:forces:R:3 pbc="T T T" Lattice="200.000 0.000 0.000 0.000 200.000 0.000 0.000 0.000 200.000"
O    1.0497236381   -1.8655612752    1.1070692820    0.0870652728   -0.0291306010    0.0274917797
H    1.1112227808   -2.5524633108    0.4555180334   -0.0165167679    0.0124929912    0.0055386708
H    0.2686104090   -1.3509787005    0.9389580217   -0.1104268321    0.0358437518   -0.0662110535
O   -0.0060324279    2.0891180702   -0.8980202675   -0.0537941670   -0.0963659821    0.0262165124
H    0.6939005719    1.7697732189   -0.2951798800    0.0236099279    0.0061706480    0.0044773194
H   -0.2484453815    3.0015045106   -0.5026862926   -0.0065578562    0.0021293878    0.0020373423
O   -0.9970969774   -0.2937470662   -0.1868010443    0.0130010412   -0.1281772154    0.0576055706
H   -1.8497990585   -0.4622105906   -0.5409321803   -0.0014166779    0.0023787848    0.0013796541
H   -0.7151528874    0.7086154824   -0.4088547378    0.0650360593    0.1946587490   -0.0585368242
9
energy=-0.0554970776 Properties=species:S:1:pos:R:3:forces:R:3 pbc="T T T" Lattice="200.000 0.000 0.000 0.000 200.000 0.000 0.000 0.000 200.000"
O   -1.6046475037    0.3560959029    1.8540870858    0.0853354345   -0.0072330280   -0.0543958052
H   -1.4053933687    1.1674769391    2.1510189839   -0.0159125586    0.0098807502    0.0135234894
H   -2.4978571444    0.3403473146    1.4293495466   -0.0071764637   -0.0074274034   -0.0084306479
O    0.7058071008   -0.4253407752    0.3039696704    0.0614380573   -0.0388971942   -0.1106695443
H    1.3592557529    0.2882393925    0.6007341218   -0.0132072437   -0.0152461287   -0.0105734054
H   -0.2232548588   -0.0916138224    0.6457148494   -0.1318055565    0.0436573349    0.0910648812
O    0.9927986355    0.0285478487   -2.2118094500   -0.0057330463    0.0504820717   -0.1428885546
H    0.8160777725   -0.3599120307   -1.2955092499    0.0265363577   -0.0304017545    0.2224801442
H    0.4596249921   -0.6984899078   -2.6780071711    0.0005250193   -0.0048146481   -0.0001105574
9
energy=-0.0496216495 Properties=species:S:1:pos:R:3:forces:R:3 pbc="T T T" Lattice="200.000 0.000 0.000 0.000 200.000 0.000 0.000 0.000 200.000"
O   -0.4580654650    0.1052803170    0.7464802126   -0.0511037645    0.1044299906   -0.0568671497
H    0.2591773527   -0.5929217398    0.7667433416    0.1266844328   -0.1388344388    0.0228668790
H   -1.2438136335   -0.4066528708    0.9957429493    0.0101841404    0.0080614375   -0.0116789799
O   -0.9735702305    1.7032344988   -1.7797691117    0.0059793580    0.0456324565   -0.0805099877
H   -1.4355906393    2.5687994164   -1.4379260516   -0.0001393538   -0.0121633757    0.0074603135
H   -0.6023749360    1.1421486848   -0.9835381399   -0.0294237068   -0.0581449881    0.1226313455
O    1.4447232632   -1.6894510583    0.9511455550   -0.0754145751    0.0597334157    0.0000560501
H    1.4757829547   -2.3118114883    0.2603484828    0.0031897108   -0.0010217565   -0.0091037627
H    1.3390593474   -2.2896483534    1.7026199594    0.0100432439   -0.0076932555    0.0051442636
9
energy=-0.0487059047 Properties=species:S:1:pos:R:3:forces:R:3 pbc="T T T" Lattice="200.000 0.000 0.000 0.000 200.000 0.000 0.000 0.000 200.000"
O    1.2130334440    1.6718828004   -0.2141919758   -0.0307725076   -0.0497770751   -0.0553759098
H    1.4037311494    1.5562441208    0.7824858409   -0.0024399771   -0.0027048007    0.0152687544
H    2.0375501293    1.9706537449   -0.7141887521    0.0020851648    0.0083704841    0.0059639313
O   -1.0200953753   -1.3532368726    1.3837142020   -0.0166715484   -0.0134376146    0.1107261085
H   -1.4504973327   -2.1060108307    0.9716358613    0.0078675763    0.0090554260   -0.0173312935
H   -0.6673425651   -0.9142316245    0.5545267792    0.0159567816    0.0089649232   -0.1656690445
O   -0.3079494977   -0.3180872079   -1.1106619688   -0.0823730092   -0.0891890042    0.0415274329
H    0.2423507140   -0.8784363340   -1.6171795497   -0.0025860158    0.0073358721    0.0138664746
H    0.2599652705    0.3629114845   -0.9116616523    0.1089335353    0.1213817893    0.0510230318
9
energy=-0.0468202373 Properties=species:S:1:pos:R:3:forces:R:3 pbc="T T T" Lattice="200.000 0.000 0.000 0.000 200.000 0.000 0.000 0.000 200.000"
O   -1.2785004990    0.1653193371    0.5019279349    0.0231131907   -0.0281227285    0.1182635551
H   -1.7072956704   -0.7038823164    0.6342755991    0.0014490738   -0.0020306574   -0.0035681772
H   -0.6421474273    0.1936620263   -0.3264256414    0.0719055332   -0.0029716813   -0.1178989727
O    0.7760049130   -0.4269721873    1.8221874860    0.0999716974   -0.0224858415    0.0227573500
H    1.0542509151   -0.8253471347    0.9704485831    0.0020964777   -0.0031393172    0.0135126908
H   -0.2317912505   -0.0863295556    1.5196563125   -0.1550982102    0.0450596147   -0.0891967175
O    0.5019728628    0.2558815570   -2.2378039860   -0.0860872251    0.0139184109    0.0694110488
H    0.1274819504    1.1740236862   -2.3120755394    0.0216810861    0.0160560262   -0.0325501684
H    1.4077994906    0.3394901110   -1.8560365174    0.0209678621   -0.0162833118    0.0192693912
9
energy=-0.0441277251 Properties=species:S:1:pos:R:3:forces:R:3 pbc="T T T" Lattice="200.000 0.000 0.000 0.000 200.000 0.000 0.000 0.000 200.000"
O    0.3945890386    1.2188607002    1.2059055647   -0.0839496098   -0.0300813950    0.0100267889
H    1.0983244616    0.9572352954    0.6071115583    0.0307478250   -0.0447058309   -0.0530634594
H   -0.2090312986    1.9100015393    0.7427342694    0.0183031705    0.0095711893    0.0106870482
O   -1.3860714444   -0.6224325469    0.0131293589    0.0566938574   -0.0744576104   -0.0781389162
H   -0.9212973706   -0.1330032435    0.7082760995    0.0643619160    0.1009070648    0.0617285919
H   -1.7754842641   -1.4271020761    0.1988214789    0.0047549985   -0.0005101069    0.0005414744
O    1.0294526560   -0.6456197752   -1.2288502197    0.1158256349    0.0675562548    0.0092127775
H    0.9938388085    0.3497440598   -1.3569956107   -0.0004329738    0.0071229847   -0.0274619549
H    0.2108881399   -0.8759795651   -0.7441341581   -0.2063053330   -0.0354010078    0.0664676496
9
energy=-0.0401292568 Properties=species:S:1:pos:R:3:forces:R:3 pbc="T T T" Lattice="200.000 0.000 0.000 0.000 200.000 0.000 0.000 0.000 200.000"
O    0.4836997738   -2.2110513813   -1.4824020123   -0.0167111433    0.0723724456    0.0362196471
H    1.2110393031   -2.7069701781   -1.0993603818    0.0047292875   -0.0050897562    0.0048964092
H    0.8183980272   -1.7361681143   -2.1856789538    0.0046356993   -0.0058698290   -0.0147704745
O   -0.3944285620   -0.1159766699   -0.0453682805   -0.0407936400    0.0624587853    0.0719209599
H    0.1845483232   -0.6740208842   -0.6234087077    0.0461651891   -0.1006334994   -0.0709465117
H   -1.1561723259   -0.7224015761    0.3424046158   -0.0014243913   -0.0002015745   -0.0003738384
O   -0.0978891146    2.3994237897    1.6053945079    0.0092580290    0.0559857755    0.0330582185
H   -0.5497793241    3.1623198437    1.0561164253    0.0014917542   -0.0085221792    0.0012999499
H   -0.3712284722    1.5279894489    1.2776757065   -0.0073507845   -0.0705001681   -0.0613033314
9
energy=-0.0387803612 Properties=species:S:1:pos:R:3:forces:R:3 pbc="T T T" Lattice="200.000 0.000 0.000 0.000 200.000 0.000 0.000 0.000 200.000"
O   -0.0734470018    1.2523743595    0.0914142217    0.0738498016    0.0293748558   -0.0466763245
H   -0.6039987473    0.4859969532    0.3916877051   -0.1065069279   -0.0789925225    0.0502203333
H    0.2009968469    1.9311100729    0.7985998875    0.0029264298   -0.0047210600   -0.0009806188
O   -2.0040750225   -0.3926405490    0.7991738239    0.0559009291    0.0435483201   -0.0125027614
H   -1.4915929801   -1.3119458624    0.8909436092    0.0030051056   -0.0108629117   -0.0030657836
H   -2.4349727498   -0.1838575339    1.6888619715   -0.0048218472   -0.0037085595    0.0005275904
O    2.0668265876   -0.8833702870   -1.0016839568    0.0191192387   -0.0452812438   -0.0163254778
H    2.8591860636   -0.4987471359   -1.3627311923   -0.0042562045    0.0029948212    0.0030632125
H    1.6401670616   -0.0473375158   -0.6437617899   -0.0392165252    0.0676488145    0.0257377730
9
energy=-0.0357224001 Properties=species:S:1:pos:R:3:forces:R:3 pbc="T T T" Lattice="200.000 0.000 0.000 0.000 200.000 0.000 0.000 0.000 200.000"
O    0.0182792673    0.5659086196    0.3652789302    0.0801731732    0.0039404730   -0.0513315642
H   -0.3169121370    1.1777709857   -0.3441449800    0.0030781249   -0.0096071848    0.0049648006
H   -0.6792052775    0.0587010632    0.7754391904   -0.0940267923   -0.0640482414    0.0647743210
O    1.9428759402    0.0029580048   -2.1093251158    0.0421563248   -0.0337683572   -0.0535853934
H    1.2214483403   -0.3126607808   -2.6990529992   -0.0029768235    0.0111632165    0.0096010141
H    1.4508941435   -0.1174196666   -1.1668577524   -0.0599966967    0.0577768061    0.0604224714
O   -1.7757265500   -0.5357432694    1.7291999741    0.0357203389    0.0430824362   -0.0376085572
H   -2.0638215016   -1.2501721161    2.3103381221    0.0085129232   -0.0019360408    0.0003974926
H   -2.5560043908   -0.0820386136    1.3599556919   -0.0126405725   -0.0066015650    0.0023649009
9
energy=-0.0315212070 Properties=species:S:1:pos:R:3:forces:R:3 pbc="T T T" Lattice="200.000 0.000 0.000 0.000 200.000 0.000 0.000 0.000 200.000"
O    0.7101666634   -2.0752176616   -1.7146412833   -0.0005867258   -0.0547336482   -0.0484622129
H    1.4766879094   -2.4633230244   -1.2307909037   -0.0045117722    0.0133301424    0.0058122362
H    0.3116682675   -1.3755636037   -1.1492690885    0.0227038710    0.0604713224    0.0589343168
O   -1.1744465322    1.8312711067    1.4312525502    0.0253649630   -0.0392329803   -0.0156364221
H   -1.5963933103    2.6645024108    1.5875787207    0.0032365049    0.0027695925   -0.0062349256
H   -1.3957376631    1.3935592043    2.2884080107   -0.0057320178    0.0001270125    0.0041096516
O    0.4903729718    0.2002699212    0.1036149755    0.0121278945   -0.0362109054   -0.0408188368
H    1.0422512811   -0.0650857073    0.7782912732   -0.0046089599   -0.0037296425   -0.0044660065
H   -0.2526933628    0.5392586459    0.5796136886   -0.0479927294    0.0572085923    0.0467632278
9
energy=-0.0296857446 Properties=species:S:1:pos:R:3:forces:R:3 pbc="T T T" Lattice="200.000 0.000 0.000 0.000 200.000 0.000 0.000 0.000 200.000"
O    0.0838012229   -0.6910492233   -0.8550541167   -0.0766589891   -0.0232468881    0.0030657836
H    0.7899952284   -0.0605290168   -0.5875354359    0.1047585776    0.0585188265    0.0459193917
H    0.2722095604   -1.2025773239   -1.7343131851   -0.0073718675    0.0096730050    0.0063269711
O   -2.3691750786    0.2544270436    0.6681318841   -0.0232294046    0.0341781911    0.0462294667
H   -2.6192319683    1.1830613856    0.3299393379   -0.0029855652   -0.0047724820   -0.0050316493
H   -1.6140197430   -0.0270199923    0.1600699864    0.0391111100   -0.0537226903   -0.0680679044
O    2.1738566502    0.4306637682    0.2263361442   -0.0412312418   -0.0295517477   -0.0411201701
H    2.9181515247   -0.1875223024    0.0235970435    0.0118471300    0.0049622295    0.0049632579
H    2.0231834555    0.3891744896    1.1825632226   -0.0042392352    0.0039610418    0.0077133101
9
energy=-0.0285324716 Properties=species:S:1:pos:R:3:forces:R:3 pbc="T T T" Lattice="200.000 0.000 0.000 0.000 200.000 0.000 0.000 0.000 200.000"
O   -1.4744087958    0.2302008764   -1.1235037513   -0.0335724391    0.0171739420    0.0387830372
H   -0.5520334350   -0.0609256727   -0.9876381650    0.0643722004   -0.0382112238   -0.0196905379
H   -1.5337811578    0.6241612084   -2.0219101933    0.0035748621   -0.0007620750    0.0025083684
O   -0.0633878004    0.5523754984    1.5623276376    0.0429677650   -0.0195738098    0.0072854785
H   -0.8929647164    0.3898378733    1.0283905981   -0.0310219046    0.0080346980   -0.0472851618
H   -0.4300551212    1.1064996076    2.2624637953   -0.0019298702   -0.0045441681   -0.0008140113
O    1.5620588034   -0.8664741153   -0.4348933373   -0.0178619692    0.0064308437   -0.0488993004
H    1.9846771117   -0.0257499276   -0.7151075459    0.0027263980    0.0005558725    0.0068962134
H    1.0390051313   -0.7019822547    0.3714057219   -0.0292545282    0.0308954063    0.0612169424
9
energy=-0.0277930294 Properties=species:S:1:pos:R:3:forces:R:3 pbc="T T T" Lattice="200.000 0.000 0.000 0.000 200.000 0.000 0.000 0.000 200.000"
O    1.0105374888    2.1945015112   -0.8060759382   -0.0152060194   -0.0108572552    0.0264587104
H    1.7855665199    1.9465895982   -1.4141758497    0.0046624388   -0.0038222022   -0.0006551171
H    0.4905649913    2.7807241921   -1.2537022034    0.0002385984    0.0035357813   -0.0011158589
O   -0.7231768934   -2.3125904624   -0.2862338413   -0.0060055832   -0.0566280371   -0.0430089027
H   -0.7439012856   -2.9061140833    0.4960534206   -0.0002432264    0.0085005819    0.0048038495
H   -0.4630286530   -1.3566718798   -0.0242225350    0.0030729827    0.0723508483    0.0697406642
O   -0.3713082191    0.0643212297    1.0685992750   -0.0144465155   -0.0493991229   -0.0126945657
H    0.2443833791    0.8933727856    0.8670944515    0.0291043757    0.0367971170   -0.0421892349
H    0.0190477578   -0.5043609754    1.7053468607   -0.0011770511   -0.0004787394   -0.0013395448
9
energy=-0.0264066909 Properties=species:S:1:pos:R:3:forces:R:3 pbc="T T T" Lattice="200.000 0.000 0.000 0.000 200.000 0.000 0.000 0.000 200.000"
O    1.4772076842   -1.5292312009   -0.1554479445   -0.0054918768   -0.0751543794    0.0010896336
H    1.2647059938   -0.5970451776   -0.2987209623   -0.0038360862    0.1052203478    0.0187747109
H    1.7352601856   -1.4310847370    0.7984932368   -0.0005373606    0.0106289413   -0.0052543068
O   -2.2339597173    0.4562727589    0.1184102476    0.0452488479    0.0217042261   -0.0127727272
H   -1.8697488164   -0.3622024172    0.5618579932   -0.0105878036   -0.0224472749    0.0050583887
H   -2.6900984091    0.2151022514   -0.6570412109   -0.0052028847   -0.0024949987   -0.0002128874
O    0.8151089643    1.0511708554   -0.0137340716    0.0510703401   -0.0233013955   -0.0075240769
H    0.7114271487    1.5446900297    0.7958167194   -0.0020609964   -0.0056507709   -0.0006438043
H   -0.0779374879    0.9764086928   -0.3944256136   -0.0686011512   -0.0085041814    0.0014855835
9
energy=-0.0243965858 Properties=species:S:1:pos:R:3:forces:R:3 pbc="T T T" Lattice="200.000 0.000 0.000 0.000 200.000 0.000 0.000 0.000 200.000"
O    0.6478607434    0.4998410804   -0.4739987044   -0.0441905818    0.0455131573    0.0275951381
H    0.8796493608    0.5024101433    0.4242245357    0.0014213059    0.0040335469   -0.0066509302
H    0.6675515316   -0.3881109315   -0.8692801720    0.0339097679   -0.0965541869   -0.0153525723
O   -2.1640905914    1.2641458936    0.7782928875   -0.0404861360   -0.0042731738    0.0096724908
H   -2.3597466788    2.0369541212    1.2625416373    0.0052923591   -0.0022234902   -0.0014552445
H   -1.4593387146    1.3561326344    0.1451734030    0.0577145854    0.0037903206   -0.0066493875
O    1.4061400432   -1.7469652169   -0.3216445100   -0.0228211134    0.0574086241   -0.0098519538
H    1.8743147381   -2.5315343235   -0.6745662640   -0.0064771236    0.0059845002   -0.0044109849
H    2.1451984437   -1.2460647765   -0.0126641046    0.0156369364   -0.0136787841    0.0071029301
9
energy=-0.0228896737 Properties=species:S:1:pos:R:3:forces:R:3 pbc="T T T" Lattice="200.000 0.000 0.000 0.000 200.000 0.000 0.000 0.000 200.000"
O   -0.0496410726    1.2806495743    0.0430986387    0.0402645069    0.0030745254   -0.0320092083
H   -0.6479373768    0.8609790365    0.6498580782   -0.0438280562   -0.0520108497    0.0172037668
H    0.4524079278    1.7572759761    0.6837050315    0.0010973469   -0.0011698520    0.0020553400
O   -1.9916078783   -0.5576441316    0.7553954105    0.0181123947    0.0422529983    0.0077621610
H   -1.8554548870   -1.4330135786    0.6738771824    0.0048300748   -0.0052702477   -0.0028302706
H   -2.2527737355   -0.3186924332    1.6100191216   -0.0073358721   -0.0081267435    0.0015133514
O    2.0322274686   -0.7400772818   -0.9135326299    0.0048444729   -0.0331142685   -0.0126205179
H    2.8702846208   -0.5448799373   -1.3457512543   -0.0002555677    0.0024266073    0.0007641319
H    1.5766856320   -0.0506609022   -0.4455197731   -0.0177282718    0.0519378304    0.0181617599
9
energy=-0.0217119377 Properties=species:S:1:pos:R:3:forces:R:3 pbc="T T T" Lattice="200.000 0.000 0.000 0.000 200.000 0.000 0.000 0.000 200.000"
O   -0.6080412355   -0.4003294127   -0.0409953616    0.0373087665   -0.0572379028   -0.0131414235
H   -0.7722260293   -0.9259727435    0.7424016050    0.0004304027    0.0030673263   -0.0054121726
H   -0.9830371393    0.4625101473   -0.0419331151   -0.0186893503    0.0818047954    0.0127521584
O    1.7651753037   -1.9988655250   -0.7647614718    0.0376116425   -0.0120142517   -0.0125135600
H    0.9103507221   -1.4671999101   -0.6318652780   -0.0556463899    0.0199476482    0.0230221736
H    2.4998770401   -1.3476310926   -0.7624372912   -0.0023582160   -0.0031382888    0.0010469533
O   -1.1687319611    2.3196510444    0.7276224439   -0.0046110168   -0.0600594316   -0.0195398713
H   -0.4156184201    2.6125640696    0.3345146745    0.0047585981    0.0118635851   -0.0023870124
H   -1.0552345718    1.9284548981    1.5996695022    0.0011965915    0.0157649773    0.0161717259
9
energy=-0.0206713199 Properties=species:S:1:pos:R:3:forces:R:3 pbc="T T T" Lattice="200.000 0.000 0.000 0.000 200.000 0.000 0.000 0.000 200.000"
O    0.2941519711   -0.4692331720   -0.2757887355    0.0235605627    0.0014639862    0.0279700049
H    0.8693777770    0.3305451331   -0.1707145812    0.0012428714    0.0020712809   -0.0017781751
H   -0.5632510717   -0.0571518859   -0.3458598141   -0.0123181562    0.0232432885   -0.0176696507
O    1.1777184818   -1.1604986829    2.1489331687    0.0240429017   -0.0123906613    0.0622366420
H    0.9160146194   -0.8935393811    1.2569101089   -0.0355336768    0.0113308525   -0.0843183060
H    0.7660716697   -0.6078995552    2.8092930495   -0.0006155221   -0.0015735153   -0.0000637634
O   -1.3621436366    1.5097463890   -1.8309464397    0.0078218106   -0.0372876835    0.0196607131
H   -2.1679211178    0.8970886640   -1.8411288198   -0.0157912026    0.0084553305   -0.0069712896
H   -1.5621582684    2.2356751044   -2.3783750855    0.0075909255    0.0046866072    0.0009343390
9
energy=-0.0180848776 Properties=species:S:1:pos:R:3:forces:R:3 pbc="T T T" Lattice="200.000 0.000 0.000 0.000 200.000 0.000 0.000 0.000 200.000"
O    0.9591039539   -1.0875573429    2.2607749034    0.0057392169   -0.0036108575    0.0585342531
H    0.6978362699   -1.0988103207    1.3507941075   -0.0057633853    0.0142495690   -0.0834934960
H    0.6907584749   -0.3862994581    2.8954598584    0.0015673446   -0.0003003049    0.0030976653
O    0.2524427392   -0.6177901339   -0.3042292707   -0.0016815016   -0.0122852460    0.0136263335
H    0.7098699534   -0.6061889057   -1.1591586391   -0.0035800043   -0.0036170282    0.0032509031
H    0.1679868811    0.3562974163   -0.1268350036   -0.0094940562    0.0123577512   -0.0030200180
O   -1.1978498109    1.5545852028   -1.9050581073    0.0223202624   -0.0149201128    0.0102566455
H   -1.8957449368    2.0061202241   -1.4297483579   -0.0048213330    0.0003918362    0.0032303343
H   -0.5881388038    2.1221678215   -2.3478544646   -0.0042855151    0.0077354215   -0.0054815923
9
energy=-0.0177196192 Properties=species:S:1:pos:R:3:forces:R:3 pbc="T T T" Lattice="200.000 0.000 0.000 0.000 200.000 0.000 0.000 0.000 200.000"
O   -0.0428483510    0.4677881064    0.2129781661   -0.0211370407    0.0025777882   -0.0186142740
H    0.8547129317    0.3066411194   -0.2282610687    0.0185998759   -0.0045529098    0.0011868213
H    0.1520818458    0.2667284820    1.1267121912    0.0068854148   -0.0045976470    0.0066601861
O    2.7293313460   -0.6094005351    1.1294963568   -0.0211282989    0.0066195627   -0.0028770647
H    3.1618323851   -0.3945244626    1.9855933642    0.0029248872    0.0023643866    0.0012500704
H    2.8504867077   -1.5534896505    0.8577092449    0.0020841364   -0.0035717768   -0.0026667484
O   -2.8155057811    0.1488753954   -1.4023678820   -0.0206130498   -0.0015735153   -0.0160837941
H   -1.8400168011    0.2690068651   -1.0488197160    0.0322241525    0.0041379337    0.0297800617
H   -3.1309153888    0.9903411483   -1.7421524950    0.0001594084   -0.0014033082    0.0013647417
9
energy=-0.0165261822 Properties=species:S:1:pos:R:3:forces:R:3 pbc="T T T" Lattice="200.000 0.000 0.000 0.000 200.000 0.000 0.000 0.000 200.000"
O    0.2787178751    0.2934177662   -0.3277462449   -0.0329384050   -0.0085298925   -0.0005286188
H    0.1184714463   -0.6774963367   -0.1849894429   -0.0014125642   -0.0099697104    0.0028842637
H    1.1668376901    0.5566196854   -0.3223083801    0.0380893535    0.0280733633    0.0144963949
O   -2.7013055326   -2.0553788671   -0.2771948120   -0.0128925406   -0.0075600723    0.0029089463
H   -2.1398380171   -2.6957570585   -0.7278562126    0.0039764684    0.0095675898    0.0023299339
H   -2.0579544900   -1.3062915924   -0.0960624543    0.0185659373    0.0050198222   -0.0083745978
O    2.2901372083    1.7565746340    0.5585236993   -0.0127824974   -0.0146599171   -0.0121212096
H    2.3180507694    2.6838607709    0.6742082830   -0.0009348532    0.0012978930   -0.0021576699
H    2.6970269726    1.5245723970    1.3938639546    0.0003301297   -0.0032390760    0.0005610148
9
energy=-0.0141160426 Properties=species:S:1:pos:R:3:forces:R:3 pbc="T T T" Lattice="200.000 0.000 0.000 0.000 200.000 0.000 0.000 0.000 200.000"
O    0.7288161315   -1.6068628970    1.2139631856    0.0018069714    0.0156163675   -0.0013179476
H    0.7442783488   -2.6354257730    1.1016029580   -0.0013462297    0.0040808552   -0.0056065480
H    0.9339006502   -1.4957759038    2.1816541525   -0.0004530284    0.0022605141   -0.0034406505
O    0.6173792149    0.9139854167    0.5029442756   -0.0093644726    0.0288853177   -0.0092564863
H    0.5932596075   -0.0534329984    0.2633946231    0.0037347847   -0.0491414984    0.0050239360
H    1.2948153615    1.1546691587    1.1672889690   -0.0002817929   -0.0005455881    0.0037579247
O   -1.3826726811    0.7345876434   -1.8244652308   -0.0074824250   -0.0121777739   -0.0015508895
H   -2.2061844222    0.9141470794   -1.2913152010    0.0031115493    0.0057788119   -0.0009754766
H   -0.7810074199    1.4536873930   -1.7151917993    0.0102736148    0.0052435082    0.0133640810
9
energy=-0.0128297603 Properties=species:S:1:pos:R:3:forces:R:3 pbc="T T T" Lattice="200.000 0.000 0.000 0.000 200.000 0.000 0.000 0.000 200.000"
O   -0.1957491135    0.9555122730   -2.5979157714   -0.0026549213   -0.0217818734    0.0121196670
H   -0.6340157453    1.7695190269   -2.1367338103   -0.0027778201    0.0023875266    0.0007821296
H    0.7254462218    1.1322208599   -2.4435330754    0.0045138290    0.0030009918   -0.0026112126
O    0.5018866859   -0.1913534430    3.0702820163   -0.0007888145    0.0044829758    0.0132890048
H    0.0222614738   -0.5747649231    2.3446540793    0.0010551808   -0.0041564457   -0.0220472112
H    0.1565307963   -0.6184535986    3.9384797397    0.0011395130    0.0003373288   -0.0025315084
O   -0.2691360458   -0.7268915700   -0.4744150699    0.0024425482   -0.0029207734    0.0314250536
H   -0.5257216447   -0.6368144742   -1.4661825711   -0.0024281500    0.0238449267   -0.0316785644
H   -0.3318845480   -1.6633087437   -0.2041601400   -0.0005023936   -0.0051931146    0.0012526416
9
energy=-0.0112609423 Properties=species:S:1:pos:R:3:forces:R:3 pbc="T T T" Lattice="200.000 0.000 0.000 0.000 200.000 0.000 0.000 0.000 200.000"