
                                 *****************
                                 * O   R   C   A *
                                 *****************

           --- An Ab Initio, DFT and Semiempirical electronic structure package ---

                  #######################################################
                  #                        -***-                        #
                  #          Department of theory and spectroscopy      #
                  #               Directorship: Frank Neese             #
                  #        Max Planck Institute fuer Kohlenforschung    #
                  #                Kaiser Wilhelm Platz 1               #
                  #                 D-45470 Muelheim/Ruhr               #
                  #                      Germany                        #
                  #                                                     #
                  #                  All rights reserved                #
                  #                        -***-                        #
                  #######################################################


                         Program Version 4.2.0 -  RELEASE  -


 With contributions from (in alphabetic order):
   Daniel Aravena         : Magnetic Suceptibility
   Michael Atanasov       : Ab Initio Ligand Field Theory (pilot matlab implementation)
   Alexander A. Auer      : GIAO ZORA, VPT2
   Ute Becker             : Parallelization
   Giovanni Bistoni       : ED, misc. LED, open-shell LED, HFLED
   Martin Brehm           : Molecular dynamics
   Dmytro Bykov           : SCF Hessian
   Vijay G. Chilkuri      : MRCI spin determinant printing, contributions to CSF-ICE
   Dipayan Datta          : RHF DLPNO-CCSD density
   Achintya Kumar Dutta   : EOM-CC, STEOM-CC
   Dmitry Ganyushin       : Spin-Orbit,Spin-Spin,Magnetic field MRCI
   Miquel Garcia          : C-PCM Hessian, Gaussian charge scheme
   Yang Guo               : DLPNO-NEVPT2, CIM, IAO-localization
   Andreas Hansen         : Spin unrestricted coupled pair/coupled cluster methods
   Benjamin Helmich-Paris : CASSCF linear response (MC-RPA)
   Lee Huntington         : MR-EOM, pCC
   Robert Izsak           : Overlap fitted RIJCOSX, COSX-SCS-MP3, EOM
   Christian Kollmar      : KDIIS, OOCD, Brueckner-CCSD(T), CCSD density
   Simone Kossmann        : Meta GGA functionals, TD-DFT gradient, OOMP2, MP2 Hessian
   Martin Krupicka        : AUTO-CI
   Lucas Lang             : DCDCAS
   Dagmar Lenk            : GEPOL surface, SMD
   Dimitrios Liakos       : Extrapolation schemes; Compound Job, initial MDCI parallelization
   Dimitrios Manganas     : Further ROCIS development; embedding schemes
   Dimitrios Pantazis     : SARC Basis sets
   Taras Petrenko         : DFT Hessian,TD-DFT gradient, ASA, ECA, R-Raman, ABS, FL, XAS/XES, NRVS
   Peter Pinski           : DLPNO-MP2, DLPNO-MP2 Gradient
   Christoph Reimann      : Effective Core Potentials
   Marius Retegan         : Local ZFS, SOC
   Christoph Riplinger    : Optimizer, TS searches, QM/MM, DLPNO-CCSD(T), (RO)-DLPNO pert. Triples
   Tobias Risthaus        : Range-separated hybrids, TD-DFT gradient, RPA, STAB
   Michael Roemelt        : Original ROCIS implementation
   Masaaki Saitow         : Open-shell DLPNO-CCSD energy and density
   Barbara Sandhoefer     : DKH picture change effects
   Avijit Sen             : IP-ROCIS
   Kantharuban Sivalingam : CASSCF convergence, NEVPT2, FIC-MRCI
   Bernardo de Souza      : ESD, SOC TD-DFT
   Georgi Stoychev        : AutoAux, RI-MP2 NMR
   Willem Van den Heuvel  : Paramagnetic NMR
   Boris Wezisla          : Elementary symmetry handling
   Frank Wennmohs         : Technical directorship


 We gratefully acknowledge several colleagues who have allowed us to
 interface, adapt or use parts of their codes:
   Stefan Grimme, W. Hujo, H. Kruse,             : VdW corrections, initial TS optimization,
                  C. Bannwarth                     DFT functionals, gCP, sTDA/sTD-DF
   Ed Valeev, F. Pavosevic, A. Kumar             : LibInt (2-el integral package), F12 methods
   Garnet Chan, S. Sharma, J. Yang, R. Olivares  : DMRG
   Ulf Ekstrom                                   : XCFun DFT Library
   Mihaly Kallay                                 : mrcc  (arbitrary order and MRCC methods)
   Andreas Klamt, Michael Diedenhofen            : otool_cosmo (COSMO solvation model)
   Jiri Pittner, Ondrej Demel                    : Mk-CCSD
   Frank Weinhold                                : gennbo (NPA and NBO analysis)
   Christopher J. Cramer and Donald G. Truhlar   : smd solvation model
   Lars Goerigk                                  : TD-DFT with DH, B97 family of functionals
   V. Asgeirsson, H. Jonsson                     : NEB implementation
   FAccTs GmbH                                   : IRC, NEB, NEB-TS, Multilevel, MM, QM/MM, CI optimization
   S Lehtola, MJT Oliveira, MAL Marques          : LibXC Library


 Your calculation uses the libint2 library for the computation of 2-el integrals
 For citations please refer to: http://libint.valeyev.net

 Your ORCA version has been built with support for libXC version: 4.2.3
 For citations please refer to: https://tddft.org/programs/libxc/

 This ORCA versions uses:
   CBLAS   interface :  Fast vector & matrix operations
   LAPACKE interface :  Fast linear algebra routines
   SCALAPACK package :  Parallel linear algebra routines


----- Orbital basis set information -----
Your calculation utilizes the basis: def2-TZVP
   F. Weigend and R. Ahlrichs, Phys. Chem. Chem. Phys. 7, 3297 (2005).

================================================================================
                                        WARNINGS
                       Please study these warnings very carefully!
================================================================================


WARNING: The frozen-core approximation for MP2-gradient calculations is turned on by default.

INFO   : the flag for use of LIBINT has been found!

================================================================================
                                       INPUT FILE
================================================================================
NAME = orcacalc.inp
|  1> ! engrad MP2 def2-TZVP TightSCF FrozenCore 
|  2> %pal nprocs 24 end
|  3> 
|  4> %maxcore 8000
|  5> 
|  6> %scf    ConvForced true end 
|  7> *xyz 0 1 
|  8> O   0.1320790191898653 -4.019752561762581 -0.8481050599973003
|  9> H   -0.4445053406567157 -3.2403817452233348 -0.9886641272468153
| 10> H   0.9555021147712474 -3.8605198101404983 -0.44899247690392147
| 11> O   -1.9160860427075965 -0.6724890263033754 -1.249787888794054
| 12> H   -2.1929869609948343 -0.42103059992105635 -2.109838926119379
| 13> H   -2.2491974460783255 -0.017389097017336205 -0.627172809647723
| 14> O   -2.2534225600721163 1.6301547235633347 0.39337599805930334
| 15> H   -1.2567170110022814 1.9772759030893436 0.3540903219436833
| 16> H   -2.8490618367154066 2.29453258521095 0.692040085164666
| 17> O   2.823583807627032 0.7754422574894602 1.5792319513374902
| 18> H   2.1712600505330553 0.1489125642527811 1.277892082870141
| 19> H   2.8031511027306224 0.5647218673513285 2.5306513096264935
| 20> O   0.774486851503054 -0.38079166934210007 -0.3532260993197694
| 21> H   -0.0028094629346407628 -0.7367003767555724 -0.6904951748957249
| 22> H   1.4419048571812263 -0.6669733846526731 -0.9623860072749576
| 23> O   0.4481501853409853 2.493049018815455 0.5368915170962032
| 24> H   0.9059769985009217 3.0671309179662813 1.1586887185625916
| 25> H   1.1358062355965686 1.843203977373287 0.34894972570490435
| 26> *
| 27> 
| 28>                          ****END OF INPUT****
================================================================================

                     *******************************
                     * Energy+Gradient Calculation *
                     *******************************

---------------------------------
CARTESIAN COORDINATES (ANGSTROEM)
---------------------------------
  O      0.132079   -4.019753   -0.848105
  H     -0.444505   -3.240382   -0.988664
  H      0.955502   -3.860520   -0.448992
  O     -1.916086   -0.672489   -1.249788
  H     -2.192987   -0.421031   -2.109839
  H     -2.249197   -0.017389   -0.627173
  O     -2.253423    1.630155    0.393376
  H     -1.256717    1.977276    0.354090
  H     -2.849062    2.294533    0.692040
  O      2.823584    0.775442    1.579232
  H      2.171260    0.148913    1.277892
  H      2.803151    0.564722    2.530651
  O      0.774487   -0.380792   -0.353226
  H     -0.002809   -0.736700   -0.690495
  H      1.441905   -0.666973   -0.962386
  O      0.448150    2.493049    0.536892
  H      0.905977    3.067131    1.158689
  H      1.135806    1.843204    0.348950

----------------------------
CARTESIAN COORDINATES (A.U.)
----------------------------
  NO LB      ZA    FRAG     MASS         X           Y           Z
   0 O     8.0000    0    15.999    0.249593   -7.596231   -1.602686
   1 H     1.0000    0     1.008   -0.839993   -6.123434   -1.868304
   2 H     1.0000    0     1.008    1.805637   -7.295325   -0.848473
   3 O     8.0000    0    15.999   -3.620878   -1.270820   -2.361757
   4 H     1.0000    0     1.008   -4.144145   -0.795633   -3.987018
   5 H     1.0000    0     1.008   -4.250367   -0.032861   -1.185185
   6 O     8.0000    0    15.999   -4.258352    3.080546    0.743373
   7 H     1.0000    0     1.008   -2.374851    3.736510    0.669134
   8 H     1.0000    0     1.008   -5.383947    4.336038    1.307766
   9 O     8.0000    0    15.999    5.335800    1.465373    2.984316
  10 H     1.0000    0     1.008    4.103087    0.281404    2.414866
  11 H     1.0000    0     1.008    5.297188    1.067170    4.782238
  12 O     8.0000    0    15.999    1.463568   -0.719592   -0.667501
  13 H     1.0000    0     1.008   -0.005309   -1.392162   -1.304847
  14 H     1.0000    0     1.008    2.724805   -1.260397   -1.818646
  15 O     8.0000    0    15.999    0.846881    4.711180    1.014578
  16 H     1.0000    0     1.008    1.712048    5.796037    2.189604
  17 H     1.0000    0     1.008    2.146363    3.483151    0.659419

--------------------------------
INTERNAL COORDINATES (ANGSTROEM)
--------------------------------
 O      0   0   0     0.000000000000     0.00000000     0.00000000
 H      1   0   0     0.979604637126     0.00000000     0.00000000
 H      1   2   0     0.928801118383   116.55587045     0.00000000
 O      2   1   3     2.971162802233   172.63234114   359.00058461
 H      4   2   1     0.937866326057   117.29371873   124.10987361
 H      4   2   1     0.963207486052   134.61105065   299.23222769
 O      6   4   2     1.938024344851   156.82763091    99.01562045
 H      7   6   4     1.056152654293   104.93711074   343.13220261
 H      7   6   4     0.940948631889   140.24331464   141.72559844
 O      8   7   6     4.426537122207   140.38693538   297.62399608
 H     10   8   7     0.953347500602    57.33149845    36.01565655
 H     10   8   7     0.974689372865   108.03141054   307.08691894
 O     11  10   8     2.211811128665   145.34544425    54.61610283
 H     13  11  10     0.919027201878   153.83120744   212.73334902
 H     13  11  10     0.947851550582    95.83050742    73.16797107
 O      8   7   6     1.790533535297   171.66558483   252.75077995
 H     16   8   7     0.962188743196   133.70098511   306.61663045
 H     16   8   7     0.964619893166   117.69871820    89.40664706

---------------------------
INTERNAL COORDINATES (A.U.)
---------------------------
 O      0   0   0     0.000000000000     0.00000000     0.00000000
 H      1   0   0     1.851184483687     0.00000000     0.00000000
 H      1   2   0     1.755179746624   116.55587045     0.00000000
 O      2   1   3     5.614683995515   172.63234114   359.00058461
 H      4   2   1     1.772310506474   117.29371873   124.10987361
 H      4   2   1     1.820198358781   134.61105065   299.23222769
 O      6   4   2     3.662335252640   156.82763091    99.01562045
 H      7   6   4     1.995839272228   104.93711074   343.13220261
 H      7   6   4     1.778135220358   140.24331464   141.72559844
 O      8   7   6     8.364942882607   140.38693538   297.62399608
 H     10   8   7     1.801565686596    57.33149845    36.01565655
 H     10   8   7     1.841895980359   108.03141054   307.08691894
 O     11  10   8     4.179717293137   145.34544425    54.61610283
 H     13  11  10     1.736709721173   153.83120744   212.73334902
 H     13  11  10     1.791179846213    95.83050742    73.16797107
 O      8   7   6     3.383618015313   171.66558483   252.75077995
 H     16   8   7     1.818273213781   133.70098511   306.61663045
 H     16   8   7     1.822867421416   117.69871820    89.40664706

---------------------
BASIS SET INFORMATION
---------------------
There are 2 groups of distinct atoms

 Group   1 Type O   : 11s6p2d1f contracted to 5s3p2d1f pattern {62111/411/11/1}
 Group   2 Type H   : 5s1p contracted to 3s1p pattern {311/1}

Atom   0O    basis set group =>   1
Atom   1H    basis set group =>   2
Atom   2H    basis set group =>   2
Atom   3O    basis set group =>   1
Atom   4H    basis set group =>   2
Atom   5H    basis set group =>   2
Atom   6O    basis set group =>   1
Atom   7H    basis set group =>   2
Atom   8H    basis set group =>   2
Atom   9O    basis set group =>   1
Atom  10H    basis set group =>   2
Atom  11H    basis set group =>   2
Atom  12O    basis set group =>   1
Atom  13H    basis set group =>   2
Atom  14H    basis set group =>   2
Atom  15O    basis set group =>   1
Atom  16H    basis set group =>   2
Atom  17H    basis set group =>   2

Checking for AutoStart:
The File: orcacalc.gbw exists
Trying to determine its content:
     ... Fine, the file contains calculation information
     ... Fine, the calculation information was read
     ... Fine, the file contains a basis set
     ... Fine, the basis set was read
     ... Fine, the file contains a geometry
     ... Fine, the geometry was read
     ... Fine, the file contains a set of orbitals
     ... Fine, the orbitals can be read
     => possible old guess file was deleted
     => GBW file was renamed to GES file
     => GES file is set as startup file
     => Guess is set to MORead
     ... now leaving AutoStart



           ************************************************************
           *        Program running with 24 parallel MPI-processes    *
           *              working on a common directory               *
           ************************************************************
------------------------------------------------------------------------------
                           ORCA GTO INTEGRAL CALCULATION
------------------------------------------------------------------------------

                         BASIS SET STATISTICS AND STARTUP INFO

 # of primitive gaussian shells          ...  192
 # of primitive gaussian functions       ...  372
 # of contracted shells                  ...  114
 # of contracted basis functions         ...  258
 Highest angular momentum                ...    3
 Maximum contraction depth               ...    6
 Integral package used                   ... LIBINT
 Integral threshhold            Thresh   ...  2.500e-11
 Primitive cut-off              TCut     ...  2.500e-12


------------------------------ INTEGRAL EVALUATION ----------------------------


 * One electron integrals 
 Pre-screening matrix                    ... done
 Shell pair data                         ... done (   0.002 sec)



           ************************************************************
           *        Program running with 24 parallel MPI-processes    *
           *              working on a common directory               *
           ************************************************************
-------------------------------------------------------------------------------
                                 ORCA SCF
-------------------------------------------------------------------------------

------------
SCF SETTINGS
------------
Hamiltonian:
 Ab initio Hamiltonian  Method          .... Hartree-Fock(GTOs)


General Settings:
 Integral files         IntName         .... orcacalc
 Hartree-Fock type      HFTyp           .... RHF
 Total Charge           Charge          ....    0
 Multiplicity           Mult            ....    1
 Number of Electrons    NEL             ....   60
 Basis Dimension        Dim             ....  258
 Nuclear Repulsion      ENuc            ....    261.8103168959 Eh

Convergence Acceleration:
 DIIS                   CNVDIIS         .... on
   Start iteration      DIISMaxIt       ....    12
   Startup error        DIISStart       ....  0.200000
   # of expansion vecs  DIISMaxEq       ....     5
   Bias factor          DIISBfac        ....   1.050
   Max. coefficient     DIISMaxC        ....  10.000
 Newton-Raphson         CNVNR           .... off
 SOSCF                  CNVSOSCF        .... on
   Start iteration      SOSCFMaxIt      ....   150
   Startup grad/error   SOSCFStart      ....  0.003300
 Level Shifting         CNVShift        .... on
   Level shift para.    LevelShift      ....    0.2500
   Turn off err/grad.   ShiftErr        ....    0.0010
 Zerner damping         CNVZerner       .... off
 Static damping         CNVDamp         .... on
   Fraction old density DampFac         ....    0.7000
   Max. Damping (<1)    DampMax         ....    0.9800
   Min. Damping (>=0)   DampMin         ....    0.0000
   Turn off err/grad.   DampErr         ....    0.1000
 Fernandez-Rico         CNVRico         .... off

SCF Procedure:
 Maximum # iterations   MaxIter         ....   125
 SCF integral mode      SCFMode         .... Direct
   Integral package                     .... LIBINT
 Reset frequency        DirectResetFreq ....    20
 Integral Threshold     Thresh          ....  2.500e-11 Eh
 Primitive CutOff       TCut            ....  2.500e-12 Eh

Convergence Tolerance:
 Convergence Check Mode ConvCheckMode   .... Total+1el-Energy
 Convergence forced     ConvForced      .... 1
 Energy Change          TolE            ....  1.000e-08 Eh
 1-El. energy change                    ....  1.000e-05 Eh
 Orbital Gradient       TolG            ....  1.000e-05
 Orbital Rotation angle TolX            ....  1.000e-05
 DIIS Error             TolErr          ....  5.000e-07


Diagonalization of the overlap matrix:
Smallest eigenvalue                        ... 5.527e-03
Time for diagonalization                   ...    0.013 sec
Threshold for overlap eigenvalues          ... 1.000e-08
Number of eigenvalues below threshold      ... 0
Time for construction of square roots      ...    0.026 sec
Total time needed                          ...    0.039 sec

---------------------
INITIAL GUESS: MOREAD
---------------------
Guess MOs are being read from file: orcacalc.ges
Input geometry compatible with but different from current geometry
Input basis set matches current basis set (good)
MOs were renormalized
MOs were reorthogonalized (Cholesky)
                      ------------------
                      INITIAL GUESS DONE (   0.0 sec)
                      ------------------
--------------
SCF ITERATIONS
--------------
ITER       Energy         Delta-E        Max-DP      RMS-DP      [F,P]     Damp
               ***  Starting incremental Fock matrix formation  ***
  0   -456.3739195426   0.000000000000 0.00160129  0.00004405  0.0185870 0.7000
                      *** Initiating the SOSCF procedure ***
                      *** Re-Reading the Fockian *** 
                      *** Removing any level shift *** 
ITER      Energy       Delta-E        Grad      Rot      Max-DP    RMS-DP
  1   -456.37445070  -0.0005311530  0.000839  0.000839  0.003999  0.000124
               *** Restarting incremental Fock matrix formation ***
  2   -456.37592513  -0.0014744318  0.001008  0.000987  0.001999  0.000049
  3   -456.37604690  -0.0001217701  0.000508  0.000773  0.001536  0.000033
  4   -456.37607173  -0.0000248301  0.000165  0.000081  0.000187  0.000005
  5   -456.37607331  -0.0000015865  0.000034  0.000066  0.000100  0.000002
  6   -456.37607344  -0.0000001287  0.000011  0.000029  0.000043  0.000001
  7   -456.37607345  -0.0000000119  0.000004  0.000004  0.000009  0.000000
                  ***Gradient check signals convergence***
              ***Rediagonalizing the Fockian in SOSCF/NRSCF***

               *****************************************************
               *                     SUCCESS                       *
               *           SCF CONVERGED AFTER   8 CYCLES          *
               *****************************************************


----------------
TOTAL SCF ENERGY
----------------

Total Energy       :         -456.37607346 Eh          -12418.62431 eV

Components:
Nuclear Repulsion  :          261.81031690 Eh            7124.22091 eV
Electronic Energy  :         -718.18639035 Eh          -19542.84522 eV
One Electron Energy:        -1151.74241953 Eh          -31340.50456 eV
Two Electron Energy:          433.55602917 Eh           11797.65934 eV

Virial components:
Potential Energy   :         -912.40577779 Eh          -24827.82344 eV
Kinetic Energy     :          456.02970433 Eh           12409.19913 eV
Virial Ratio       :            2.00075953


---------------
SCF CONVERGENCE
---------------

  Last Energy change         ...   -1.7326e-09  Tolerance :   1.0000e-08
  Last MAX-Density change    ...    2.3201e-06  Tolerance :   1.0000e-07
  Last RMS-Density change    ...    6.2049e-08  Tolerance :   5.0000e-09
  Last Orbital Gradient      ...    1.1565e-06  Tolerance :   1.0000e-05
  Last Orbital Rotation      ...    1.8011e-06  Tolerance :   1.0000e-05

             **** THE GBW FILE WAS UPDATED (orcacalc.gbw) ****
             **** DENSITY FILE WAS UPDATED (orcacalc.scfp) ****
             **** ENERGY FILE WAS UPDATED (orcacalc.en.tmp) ****
             **** THE GBW FILE WAS UPDATED (orcacalc.gbw) ****
             **** DENSITY FILE WAS UPDATED (orcacalc.scfp) ****
----------------
ORBITAL ENERGIES
----------------

  NO   OCC          E(Eh)            E(eV) 
   0   2.0000     -20.569390      -559.7216 
   1   2.0000     -20.568852      -559.7069 
   2   2.0000     -20.563463      -559.5603 
   3   2.0000     -20.551925      -559.2463 
   4   2.0000     -20.545583      -559.0737 
   5   2.0000     -20.544252      -559.0375 
   6   2.0000      -1.376117       -37.4461 
   7   2.0000      -1.361356       -37.0444 
   8   2.0000      -1.356182       -36.9036 
   9   2.0000      -1.349807       -36.7301 
  10   2.0000      -1.336191       -36.3596 
  11   2.0000      -1.315897       -35.8074 
  12   2.0000      -0.745992       -20.2995 
  13   2.0000      -0.730567       -19.8797 
  14   2.0000      -0.727560       -19.7979 
  15   2.0000      -0.718987       -19.5646 
  16   2.0000      -0.706873       -19.2350 
  17   2.0000      -0.699621       -19.0377 
  18   2.0000      -0.616059       -16.7638 
  19   2.0000      -0.611193       -16.6314 
  20   2.0000      -0.594579       -16.1793 
  21   2.0000      -0.582519       -15.8511 
  22   2.0000      -0.551973       -15.0200 
  23   2.0000      -0.541556       -14.7365 
  24   2.0000      -0.524748       -14.2791 
  25   2.0000      -0.519854       -14.1459 
  26   2.0000      -0.512387       -13.9428 
  27   2.0000      -0.504729       -13.7344 
  28   2.0000      -0.497317       -13.5327 
  29   2.0000      -0.489665       -13.3245 
  30   0.0000       0.104000         2.8300 
  31   0.0000       0.132491         3.6053 
  32   0.0000       0.142778         3.8852 
  33   0.0000       0.165085         4.4922 
  34   0.0000       0.178928         4.8689 
  35   0.0000       0.182966         4.9788 
  36   0.0000       0.225379         6.1329 
  37   0.0000       0.257573         7.0089 
  38   0.0000       0.272232         7.4078 
  39   0.0000       0.288764         7.8577 
  40   0.0000       0.323443         8.8013 
  41   0.0000       0.335556         9.1309 
  42   0.0000       0.443241        12.0612 
  43   0.0000       0.475158        12.9297 
  44   0.0000       0.505365        13.7517 
  45   0.0000       0.514554        14.0017 
  46   0.0000       0.520206        14.1555 
  47   0.0000       0.528597        14.3839 
  48   0.0000       0.543334        14.7849 
  49   0.0000       0.558381        15.1943 
  50   0.0000       0.578186        15.7332 
  51   0.0000       0.596863        16.2415 
  52   0.0000       0.604175        16.4404 
  53   0.0000       0.609275        16.5792 
  54   0.0000       0.616930        16.7875 
  55   0.0000       0.620497        16.8846 
  56   0.0000       0.630487        17.1564 
  57   0.0000       0.636903        17.3310 
  58   0.0000       0.654796        17.8179 
  59   0.0000       0.693122        18.8608 
  60   0.0000       0.714436        19.4408 
  61   0.0000       0.721269        19.6267 
  62   0.0000       0.730708        19.8836 
  63   0.0000       0.746784        20.3210 
  64   0.0000       0.766679        20.8624 
  65   0.0000       0.775146        21.0928 
  66   0.0000       0.789401        21.4807 
  67   0.0000       0.801738        21.8164 
  68   0.0000       0.805312        21.9136 
  69   0.0000       0.834006        22.6945 
  70   0.0000       0.851639        23.1743 
  71   0.0000       0.869989        23.6736 
  72   0.0000       0.909613        24.7518 
  73   0.0000       0.918945        25.0058 
  74   0.0000       0.934794        25.4370 
  75   0.0000       0.964186        26.2368 
  76   0.0000       0.995527        27.0897 
  77   0.0000       1.013864        27.5886 
  78   0.0000       1.364771        37.1373 
  79   0.0000       1.399795        38.0904 
  80   0.0000       1.415801        38.5259 
  81   0.0000       1.427084        38.8329 
  82   0.0000       1.442049        39.2401 
  83   0.0000       1.448014        39.4025 
  84   0.0000       1.467473        39.9320 
  85   0.0000       1.477234        40.1976 
  86   0.0000       1.498285        40.7704 
  87   0.0000       1.514032        41.1989 
  88   0.0000       1.523155        41.4471 
  89   0.0000       1.530670        41.6516 
  90   0.0000       1.552091        42.2345 
  91   0.0000       1.566710        42.6323 
  92   0.0000       1.578128        42.9431 
  93   0.0000       1.598435        43.4956 
  94   0.0000       1.611471        43.8504 
  95   0.0000       1.632099        44.4117 
  96   0.0000       1.775266        48.3074 
  97   0.0000       1.798230        48.9323 
  98   0.0000       1.814040        49.3625 
  99   0.0000       1.824120        49.6368 
 100   0.0000       1.859664        50.6040 
 101   0.0000       1.876008        51.0488 
 102   0.0000       1.889050        51.4037 
 103   0.0000       1.935098        52.6567 
 104   0.0000       1.939502        52.7765 
 105   0.0000       1.973778        53.7092 
 106   0.0000       1.985118        54.0178 
 107   0.0000       2.017976        54.9119 
 108   0.0000       2.039461        55.4965 
 109   0.0000       2.074497        56.4499 
 110   0.0000       2.091196        56.9043 
 111   0.0000       2.098486        57.1027 
 112   0.0000       2.134570        58.0846 
 113   0.0000       2.172362        59.1130 
 114   0.0000       2.248533        61.1857 
 115   0.0000       2.256930        61.4142 
 116   0.0000       2.282573        62.1120 
 117   0.0000       2.286520        62.2194 
 118   0.0000       2.299453        62.5713 
 119   0.0000       2.309384        62.8415 
 120   0.0000       2.317266        63.0560 
 121   0.0000       2.335777        63.5597 
 122   0.0000       2.357297        64.1453 
 123   0.0000       2.371311        64.5267 
 124   0.0000       2.394346        65.1535 
 125   0.0000       2.411334        65.6157 
 126   0.0000       2.413984        65.6878 
 127   0.0000       2.431271        66.1582 
 128   0.0000       2.461787        66.9886 
 129   0.0000       2.474968        67.3473 
 130   0.0000       2.480472        67.4971 
 131   0.0000       2.502771        68.1039 
 132   0.0000       2.528464        68.8030 
 133   0.0000       2.576783        70.1178 
 134   0.0000       2.590647        70.4951 
 135   0.0000       2.619848        71.2897 
 136   0.0000       2.639191        71.8160 
 137   0.0000       2.658221        72.3339 
 138   0.0000       2.681968        72.9801 
 139   0.0000       2.727867        74.2290 
 140   0.0000       2.761836        75.1534 
 141   0.0000       2.784517        75.7706 
 142   0.0000       2.805893        76.3522 
 143   0.0000       2.823099        76.8204 
 144   0.0000       2.960298        80.5538 
 145   0.0000       2.978006        81.0357 
 146   0.0000       2.990821        81.3844 
 147   0.0000       2.991510        81.4031 
 148   0.0000       3.002115        81.6917 
 149   0.0000       3.006787        81.8188 
 150   0.0000       3.029083        82.4255 
 151   0.0000       3.036149        82.6178 
 152   0.0000       3.046524        82.9001 
 153   0.0000       3.057475        83.1981 
 154   0.0000       3.072686        83.6120 
 155   0.0000       3.084916        83.9448 
 156   0.0000       3.089025        84.0567 
 157   0.0000       3.108929        84.5982 
 158   0.0000       3.116333        84.7997 
 159   0.0000       3.132969        85.2524 
 160   0.0000       3.153337        85.8067 
 161   0.0000       3.176644        86.4409 
 162   0.0000       3.230744        87.9130 
 163   0.0000       3.254324        88.5547 
 164   0.0000       3.286550        89.4316 
 165   0.0000       3.328738        90.5796 
 166   0.0000       3.358180        91.3807 
 167   0.0000       3.409709        92.7829 
 168   0.0000       3.964883       107.8900 
 169   0.0000       3.977583       108.2355 
 170   0.0000       4.038872       109.9033 
 171   0.0000       4.066828       110.6640 
 172   0.0000       4.096399       111.4687 
 173   0.0000       4.119496       112.0972 
 174   0.0000       4.278855       116.4336 
 175   0.0000       4.318295       117.5068 
 176   0.0000       4.370293       118.9217 
 177   0.0000       4.376188       119.0821 
 178   0.0000       4.387838       119.3991 
 179   0.0000       4.411853       120.0526 
 180   0.0000       5.529608       150.4683 
 181   0.0000       5.534101       150.5905 
 182   0.0000       5.544681       150.8784 
 183   0.0000       5.550699       151.0422 
 184   0.0000       5.570364       151.5773 
 185   0.0000       5.572068       151.6237 
 186   0.0000       5.620986       152.9548 
 187   0.0000       5.640781       153.4935 
 188   0.0000       5.645478       153.6213 
 189   0.0000       5.655619       153.8972 
 190   0.0000       5.677480       154.4921 
 191   0.0000       5.685977       154.7233 
 192   0.0000       5.788112       157.5025 
 193   0.0000       5.810461       158.1107 
 194   0.0000       5.826729       158.5534 
 195   0.0000       5.830727       158.6621 
 196   0.0000       5.836277       158.8132 
 197   0.0000       5.843567       159.0116 
 198   0.0000       5.851410       159.2250 
 199   0.0000       5.859583       159.4473 
 200   0.0000       5.863804       159.5622 
 201   0.0000       5.871637       159.7754 
 202   0.0000       5.874006       159.8398 
 203   0.0000       5.892405       160.3405 
 204   0.0000       5.898158       160.4970 
 205   0.0000       5.907620       160.7545 
 206   0.0000       5.950880       161.9317 
 207   0.0000       5.974614       162.5775 
 208   0.0000       5.987988       162.9415 
 209   0.0000       6.043286       164.4462 
 210   0.0000       6.306372       171.6051 
 211   0.0000       6.497046       176.7936 
 212   0.0000       6.549533       178.2218 
 213   0.0000       6.555112       178.3737 
 214   0.0000       6.556822       178.4202 
 215   0.0000       6.634915       180.5452 
 216   0.0000       6.698058       182.2634 
 217   0.0000       6.721624       182.9047 
 218   0.0000       6.753787       183.7799 
 219   0.0000       6.772840       184.2983 
 220   0.0000       6.781234       184.5268 
 221   0.0000       6.799378       185.0205 
 222   0.0000       6.812657       185.3818 
 223   0.0000       6.820930       185.6069 
 224   0.0000       6.831859       185.9043 
 225   0.0000       6.840040       186.1269 
 226   0.0000       6.862887       186.7486 
 227   0.0000       6.878792       187.1814 
 228   0.0000       6.882807       187.2907 
 229   0.0000       6.889628       187.4763 
 230   0.0000       6.892787       187.5623 
 231   0.0000       6.905453       187.9069 
 232   0.0000       6.923212       188.3902 
 233   0.0000       6.928253       188.5274 
 234   0.0000       6.932932       188.6547 
 235   0.0000       6.949765       189.1127 
 236   0.0000       6.985189       190.0767 
 237   0.0000       6.988324       190.1620 
 238   0.0000       7.001669       190.5251 
 239   0.0000       7.136992       194.2074 
 240   0.0000       7.336600       199.6390 
 241   0.0000       7.369102       200.5235 
 242   0.0000       7.393308       201.1821 
 243   0.0000       7.443962       202.5605 
 244   0.0000       7.474320       203.3866 
 245   0.0000       7.498917       204.0559 
 246   0.0000       7.510566       204.3729 
 247   0.0000       7.524680       204.7570 
 248   0.0000       7.557363       205.6463 
 249   0.0000       7.580068       206.2641 
 250   0.0000       7.586667       206.4437 
 251   0.0000       7.600176       206.8113 
 252   0.0000      44.857224      1220.6271 
 253   0.0000      44.891221      1221.5522 
 254   0.0000      44.921832      1222.3852 
 255   0.0000      44.954865      1223.2841 
 256   0.0000      44.973930      1223.8029 
 257   0.0000      44.987367      1224.1685 

                    ********************************
                    * MULLIKEN POPULATION ANALYSIS *
                    ********************************

-----------------------
MULLIKEN ATOMIC CHARGES
-----------------------
   0 O :   -0.722061
   1 H :    0.376881
   2 H :    0.345425
   3 O :   -0.760331
   4 H :    0.349156
   5 H :    0.416330
   6 O :   -0.798095
   7 H :    0.440260
   8 H :    0.348231
   9 O :   -0.705235
  10 H :    0.357680
  11 H :    0.343238
  12 O :   -0.719518
  13 H :    0.367435
  14 H :    0.344905
  15 O :   -0.725961
  16 H :    0.354165
  17 H :    0.387495
Sum of atomic charges:   -0.0000000

--------------------------------
MULLIKEN REDUCED ORBITAL CHARGES
--------------------------------
  0 O s       :     3.786470  s :     3.786470
      pz      :     1.863007  p :     4.911750
      px      :     1.411305
      py      :     1.637438
      dz2     :     0.003262  d :     0.022010
      dxz     :     0.003655
      dyz     :     0.002059
      dx2y2   :     0.005432
      dxy     :     0.007601
      f0      :     0.000329  f :     0.001832
      f+1     :     0.000226
      f-1     :     0.000182
      f+2     :     0.000368
      f-2     :     0.000162
      f+3     :     0.000465
      f-3     :     0.000100
  1 H s       :     0.579141  s :     0.579141
      pz      :     0.013801  p :     0.043978
      px      :     0.014205
      py      :     0.015972
  2 H s       :     0.604562  s :     0.604562
      pz      :     0.018147  p :     0.050013
      px      :     0.020065
      py      :     0.011802
  3 O s       :     3.789695  s :     3.789695
      pz      :     1.340302  p :     4.946886
      px      :     1.855739
      py      :     1.750845
      dz2     :     0.003320  d :     0.022125
      dxz     :     0.004071
      dyz     :     0.008575
      dx2y2   :     0.002471
      dxy     :     0.003687
      f0      :     0.000350  f :     0.001624
      f+1     :     0.000325
      f-1     :     0.000330
      f+2     :     0.000124
      f-2     :     0.000299
      f+3     :     0.000151
      f-3     :     0.000046
  4 H s       :     0.602634  s :     0.602634
      pz      :     0.018982  p :     0.048210
      px      :     0.015689
      py      :     0.013538
  5 H s       :     0.534458  s :     0.534458
      pz      :     0.015920  p :     0.049212
      px      :     0.013366
      py      :     0.019926
  6 O s       :     3.804266  s :     3.804266
      pz      :     1.918259  p :     4.972735
      px      :     1.389666
      py      :     1.664809
      dz2     :     0.003203  d :     0.019582
      dxz     :     0.000741
      dyz     :     0.002695
      dx2y2   :     0.002954
      dxy     :     0.009989
      f0      :     0.000255  f :     0.001512
      f+1     :     0.000331
      f-1     :     0.000133
      f+2     :     0.000044
      f-2     :     0.000261
      f+3     :     0.000248
      f-3     :     0.000241
  7 H s       :     0.513642  s :     0.513642
      pz      :     0.009854  p :     0.046098
      px      :     0.027332
      py      :     0.008912
  8 H s       :     0.603111  s :     0.603111
      pz      :     0.017094  p :     0.048657
      px      :     0.014981
      py      :     0.016582
  9 O s       :     3.816976  s :     3.816976
      pz      :     1.389587  p :     4.859705
      px      :     1.742692
      py      :     1.727426
      dz2     :     0.010952  d :     0.027082
      dxz     :     0.001687
      dyz     :     0.004108
      dx2y2   :     0.001788
      dxy     :     0.008547
      f0      :     0.000550  f :     0.001472
      f+1     :     0.000017
      f-1     :     0.000153
      f+2     :     0.000014
      f-2     :     0.000233
      f+3     :     0.000238
      f-3     :     0.000267
 10 H s       :     0.593713  s :     0.593713
      pz      :     0.012133  p :     0.048607
      px      :     0.018946
      py      :     0.017528
 11 H s       :     0.611680  s :     0.611680
      pz      :     0.019352  p :     0.045082
      px      :     0.012799
      py      :     0.012930
 12 O s       :     3.785369  s :     3.785369
      pz      :     1.700874  p :     4.908780
      px      :     1.355468
      py      :     1.852438
      dz2     :     0.002276  d :     0.023722
      dxz     :     0.010528
      dyz     :     0.004247
      dx2y2   :     0.001224
      dxy     :     0.005447
      f0      :     0.000190  f :     0.001647
      f+1     :     0.000121
      f-1     :     0.000097
      f+2     :     0.000307
      f-2     :     0.000380
      f+3     :     0.000138
      f-3     :     0.000413
 13 H s       :     0.577250  s :     0.577250
      pz      :     0.014948  p :     0.055315
      px      :     0.024244
      py      :     0.016123
 14 H s       :     0.608321  s :     0.608321
      pz      :     0.016203  p :     0.046774
      px      :     0.015484
      py      :     0.015087
 15 O s       :     3.796370  s :     3.796370
      pz      :     1.723427  p :     4.904515
      px      :     1.631594
      py      :     1.549494
      dz2     :     0.003086  d :     0.023539
      dxz     :     0.005324
      dyz     :     0.003099
      dx2y2   :     0.000860
      dxy     :     0.011169
      f0      :     0.000215  f :     0.001536
      f+1     :     0.000174
      f-1     :     0.000289
      f+2     :     0.000067
      f-2     :     0.000470
      f+3     :     0.000133
      f-3     :     0.000188
 16 H s       :     0.599965  s :     0.599965
      pz      :     0.017168  p :     0.045870
      px      :     0.013270
      py      :     0.015431
 17 H s       :     0.567283  s :     0.567283
      pz      :     0.012774  p :     0.045221
      px      :     0.015774
      py      :     0.016673


                     *******************************
                     * LOEWDIN POPULATION ANALYSIS *
                     *******************************

----------------------
LOEWDIN ATOMIC CHARGES
----------------------
   0 O :   -0.312535
   1 H :    0.175424
   2 H :    0.133537
   3 O :   -0.302571
   4 H :    0.142815
   5 H :    0.161644
   6 O :   -0.375302
   7 H :    0.219359
   8 H :    0.137166
   9 O :   -0.322630
  10 H :    0.147861
  11 H :    0.170134
  12 O :   -0.275165
  13 H :    0.118858
  14 H :    0.150477
  15 O :   -0.295684
  16 H :    0.163889
  17 H :    0.162723

-------------------------------
LOEWDIN REDUCED ORBITAL CHARGES
-------------------------------
  0 O s       :     3.425189  s :     3.425189
      pz      :     1.816425  p :     4.855189
      px      :     1.414703
      py      :     1.624061
      dz2     :     0.003445  d :     0.029967
      dxz     :     0.005767
      dyz     :     0.001474
      dx2y2   :     0.008094
      dxy     :     0.011188
      f0      :     0.000401  f :     0.002191
      f+1     :     0.000126
      f-1     :     0.000214
      f+2     :     0.000530
      f-2     :     0.000117
      f+3     :     0.000669
      f-3     :     0.000135
  1 H s       :     0.668065  s :     0.668065
      pz      :     0.040522  p :     0.156510
      px      :     0.046694
      py      :     0.069295
  2 H s       :     0.686293  s :     0.686293
      pz      :     0.060368  p :     0.180169
      px      :     0.079498
      py      :     0.040303
  3 O s       :     3.425029  s :     3.425029
      pz      :     1.335371  p :     4.846232
      px      :     1.797775
      py      :     1.713086
      dz2     :     0.006957  d :     0.029095
      dxz     :     0.006036
      dyz     :     0.011556
      dx2y2   :     0.001847
      dxy     :     0.002700
      f0      :     0.000429  f :     0.002215
      f+1     :     0.000441
      f-1     :     0.000463
      f+2     :     0.000184
      f-2     :     0.000556
      f+3     :     0.000136
      f-3     :     0.000007
  4 H s       :     0.682380  s :     0.682380
      pz      :     0.075634  p :     0.174805
      px      :     0.052571
      py      :     0.046600
  5 H s       :     0.660739  s :     0.660739
      pz      :     0.055191  p :     0.177617
      px      :     0.049520
      py      :     0.072906
  6 O s       :     3.466057  s :     3.466057
      pz      :     1.866199  p :     4.881452
      px      :     1.362084
      py      :     1.653169
      dz2     :     0.003432  d :     0.025983
      dxz     :     0.001446
      dyz     :     0.003138
      dx2y2   :     0.004303
      dxy     :     0.013664
      f0      :     0.000241  f :     0.001809
      f+1     :     0.000315
      f-1     :     0.000083
      f+2     :     0.000012
      f-2     :     0.000396
      f+3     :     0.000365
      f-3     :     0.000396
  7 H s       :     0.626401  s :     0.626401
      pz      :     0.029436  p :     0.154240
      px      :     0.094524
      py      :     0.030279
  8 H s       :     0.686748  s :     0.686748
      pz      :     0.054884  p :     0.176087
      px      :     0.052685
      py      :     0.068518
  9 O s       :     3.466246  s :     3.466246
      pz      :     1.396189  p :     4.820326
      px      :     1.710228
      py      :     1.713908
      dz2     :     0.016200  d :     0.033715
      dxz     :     0.001879
      dyz     :     0.004815
      dx2y2   :     0.000555
      dxy     :     0.010265
      f0      :     0.000953  f :     0.002343
      f+1     :     0.000052
      f-1     :     0.000384
      f+2     :     0.000012
      f-2     :     0.000364
      f+3     :     0.000257
      f-3     :     0.000322
 10 H s       :     0.680144  s :     0.680144
      pz      :     0.035602  p :     0.171995
      px      :     0.069245
      py      :     0.067148
 11 H s       :     0.673483  s :     0.673483
      pz      :     0.078007  p :     0.156382
      px      :     0.037823
      py      :     0.040553
 12 O s       :     3.413454  s :     3.413454
      pz      :     1.686396  p :     4.827362
      px      :     1.343735
      py      :     1.797230
      dz2     :     0.001718  d :     0.031825
      dxz     :     0.015895
      dyz     :     0.003368
      dx2y2   :     0.002978
      dxy     :     0.007866
      f0      :     0.000298  f :     0.002525
      f+1     :     0.000289
      f-1     :     0.000073
      f+2     :     0.000442
      f-2     :     0.000799
      f+3     :     0.000071
      f-3     :     0.000554
 13 H s       :     0.685858  s :     0.685858
      pz      :     0.053152  p :     0.195283
      px      :     0.082883
      py      :     0.059248
 14 H s       :     0.680639  s :     0.680639
      pz      :     0.064113  p :     0.168885
      px      :     0.053728
      py      :     0.051043
 15 O s       :     3.443412  s :     3.443412
      pz      :     1.694637  p :     4.818595
      px      :     1.607271
      py      :     1.516687
      dz2     :     0.003742  d :     0.031374
      dxz     :     0.006131
      dyz     :     0.005660
      dx2y2   :     0.001035
      dxy     :     0.014806
      f0      :     0.000239  f :     0.002303
      f+1     :     0.000320
      f-1     :     0.000278
      f+2     :     0.000030
      f-2     :     0.000676
      f+3     :     0.000309
      f-3     :     0.000453
 16 H s       :     0.673948  s :     0.673948
      pz      :     0.061757  p :     0.162163
      px      :     0.048997
      py      :     0.051409
 17 H s       :     0.671800  s :     0.671800
      pz      :     0.039642  p :     0.165477
      px      :     0.066345
      py      :     0.059490


                      *****************************
                      * MAYER POPULATION ANALYSIS *
                      *****************************

  NA   - Mulliken gross atomic population
  ZA   - Total nuclear charge
  QA   - Mulliken gross atomic charge
  VA   - Mayer's total valence
  BVA  - Mayer's bonded valence
  FA   - Mayer's free valence

  ATOM       NA         ZA         QA         VA         BVA        FA
  0 O      8.7221     8.0000    -0.7221     1.7569     1.7569     0.0000
  1 H      0.6231     1.0000     0.3769     0.8790     0.8790     0.0000
  2 H      0.6546     1.0000     0.3454     0.9004     0.9004     0.0000
  3 O      8.7603     8.0000    -0.7603     1.7259     1.7259     0.0000
  4 H      0.6508     1.0000     0.3492     0.8964     0.8964     0.0000
  5 H      0.5837     1.0000     0.4163     0.8556     0.8556    -0.0000
  6 O      8.7981     8.0000    -0.7981     1.6804     1.6804    -0.0000
  7 H      0.5597     1.0000     0.4403     0.8272     0.8272    -0.0000
  8 H      0.6518     1.0000     0.3482     0.8980     0.8980     0.0000
  9 O      8.7052     8.0000    -0.7052     1.7723     1.7723     0.0000
 10 H      0.6423     1.0000     0.3577     0.8957     0.8957    -0.0000
 11 H      0.6568     1.0000     0.3432     0.8978     0.8978    -0.0000
 12 O      8.7195     8.0000    -0.7195     1.7538     1.7538    -0.0000
 13 H      0.6326     1.0000     0.3674     0.9121     0.9121    -0.0000
 14 H      0.6551     1.0000     0.3449     0.8961     0.8961    -0.0000
 15 O      8.7260     8.0000    -0.7260     1.7534     1.7534    -0.0000
 16 H      0.6458     1.0000     0.3542     0.8926     0.8926    -0.0000
 17 H      0.6125     1.0000     0.3875     0.8777     0.8777    -0.0000

  Mayer bond orders larger than 0.100000
B(  0-O ,  1-H ) :   0.8607 B(  0-O ,  2-H ) :   0.8880 B(  3-O ,  4-H ) :   0.8882 
B(  3-O ,  5-H ) :   0.8178 B(  6-O ,  7-H ) :   0.7802 B(  6-O ,  8-H ) :   0.8878 
B(  9-O , 10-H ) :   0.8720 B(  9-O , 11-H ) :   0.8912 B( 12-O , 13-H ) :   0.8591 
B( 12-O , 14-H ) :   0.8888 B( 15-O , 16-H ) :   0.8832 B( 15-O , 17-H ) :   0.8509 


-------
TIMINGS
-------

Total SCF time: 0 days 0 hours 0 min 3 sec 

Total time                  ....       3.538 sec
Sum of individual times     ....       2.929 sec  ( 82.8%)

Fock matrix formation       ....       2.438 sec  ( 68.9%)
Diagonalization             ....       0.052 sec  (  1.5%)
Density matrix formation    ....       0.135 sec  (  3.8%)
Population analysis         ....       0.050 sec  (  1.4%)
Initial guess               ....       0.028 sec  (  0.8%)
Orbital Transformation      ....       0.000 sec  (  0.0%)
Orbital Orthonormalization  ....       0.018 sec  (  0.5%)
DIIS solution               ....       0.015 sec  (  0.4%)
SOSCF solution              ....       0.210 sec  (  5.9%)


           ************************************************************
           *        Program running with 24 parallel MPI-processes    *
           *              working on a common directory               *
           ************************************************************

------------------------------------------------------------------------------
                                ORCA  MP2 
------------------------------------------------------------------------------

Freezing NCore=12 chemical core electrons
MP2 will be done in the AO integral direct mode
The Q1-step will be done using symmetric double matrices
Dimension of the basis                    ...  258
Memory devoted for MP2                    ... 8000 MB   
Memory needed for all in one shot         ...   67 MB
Number of MOs that can be treated together...  120      
MP2 density construction                  ... relaxed
The MP2 gradient is requested => amplitudes will be stored on disk
Total number of MOs              ...   24
Number of MOs treated per batch  ...    1 
Number of batches necessary      ...    1 
OPERATORS   0/  0 PASS   0
-----------------------------------------------
 MP2 CORRELATION ENERGY   :     -1.537924447 Eh
-----------------------------------------------


---------------------
MP2 DENSITY FORMATION
---------------------

Completing the external part of the density      ... done
Storing the unrelaxed density                    ... done

Calculating G(D)                                 ... done
Completing the Lagrangian                        ... done
Solving the Z-vector equations                   ... 

------------------------------------------------------------------------------
                           ORCA CP-SCF CALCULATION
------------------------------------------------------------------------------

Input orbitals are from        ... orcacalc.gbw
Input Perturbation             ... orcacalc.pin.tmp
Wavefunction output            ... orcacalc.pout.tmp
Perturbation mode              ... Real perturbation (singlet)
Solver                         ... POPLE
Max. number of iterations      ... 128
Convergence tolerance          ... 1.000e-08
Integral handling              ... Direct
Number of perturbations        ... 1
Number of operators            ... 1
Orbital ranges used for CP-SCF:
 Operator 0:  Orbitals   0... 29  to  30...257
Variables per vector in CP-SCF ... 6840
Number of vectors sought       ... 1
     CP-SCF ITERATION   0: 
     CP-SCF ITERATION   1:      0.000590165875
     CP-SCF ITERATION   2:      0.000015499775
     CP-SCF ITERATION   3:      0.000000591884
     CP-SCF ITERATION   4:      0.000000060494
     CP-SCF ITERATION   5:      0.000000005785
                                                 ... done
Finalizing the relaxed density                   ... done
Transforming P to the AO basis                   ... done
Storing the relaxed density                      ... done

------------------------------------
ENERGY WEIGHTED DENSITY FINALIZATION
------------------------------------

Gathering the parts of the W-matrix              ...                                                      done
Forming the Z-density                            ... done
Transforming Z to the AO basis                   ... done
Calculating G(Z)                                 ... done
Finalizing the W-matrix                          ...                                                      done
Transforming W to the AO basis and storing       ... done

                *********************************************
                * UNRELAXED MP2 DENSITY POPULATION ANALYSIS *
                *********************************************

------------------------------------------------------------------------------
                           ORCA POPULATION ANALYSIS
------------------------------------------------------------------------------
Input electron density              ... orcacalc.pmp2ur
BaseName (.gbw .S,...)              ... orcacalc

                    ********************************
                    * MULLIKEN POPULATION ANALYSIS *
                    ********************************

-----------------------
MULLIKEN ATOMIC CHARGES
-----------------------
   0 O :   -0.718073
   1 H :    0.374531
   2 H :    0.343797
   3 O :   -0.755397
   4 H :    0.347298
   5 H :    0.413457
   6 O :   -0.792329
   7 H :    0.435924
   8 H :    0.346476
   9 O :   -0.699966
  10 H :    0.354828
  11 H :    0.340705
  12 O :   -0.715088
  13 H :    0.364883
  14 H :    0.342706
  15 O :   -0.720321
  16 H :    0.351896
  17 H :    0.384672
Sum of atomic charges:   -0.0000000

--------------------------------
MULLIKEN REDUCED ORBITAL CHARGES
--------------------------------
  0 O s       :     3.782048  s :     3.782048
      pz      :     1.851817  p :     4.882932
      px      :     1.403756
      py      :     1.627359
      dz2     :     0.008737  d :     0.048710
      dxz     :     0.009078
      dyz     :     0.007535
      dx2y2   :     0.010643
      dxy     :     0.012717
      f0      :     0.000683  f :     0.004383
      f+1     :     0.000588
      f-1     :     0.000537
      f+2     :     0.000727
      f-2     :     0.000530
      f+3     :     0.000836
      f-3     :     0.000481
  1 H s       :     0.580014  s :     0.580014
      pz      :     0.014592  p :     0.045455
      px      :     0.014541
      py      :     0.016321
  2 H s       :     0.604607  s :     0.604607
      pz      :     0.018820  p :     0.051596
      px      :     0.020215
      py      :     0.012561
  3 O s       :     3.785168  s :     3.785168
      pz      :     1.332936  p :     4.916578
      px      :     1.843662
      py      :     1.739979
      dz2     :     0.008651  d :     0.049435
      dxz     :     0.009583
      dyz     :     0.013805
      dx2y2   :     0.008152
      dxy     :     0.009245
      f0      :     0.000720  f :     0.004216
      f+1     :     0.000689
      f-1     :     0.000708
      f+2     :     0.000501
      f-2     :     0.000671
      f+3     :     0.000514
      f-3     :     0.000412
  4 H s       :     0.602877  s :     0.602877
      pz      :     0.019053  p :     0.049825
      px      :     0.016459
      py      :     0.014313
  5 H s       :     0.535950  s :     0.535950
      pz      :     0.016181  p :     0.050593
      px      :     0.014028
      py      :     0.020384
  6 O s       :     3.799399  s :     3.799399
      pz      :     1.906429  p :     4.941780
      px      :     1.381145
      py      :     1.654206
      dz2     :     0.008779  d :     0.047090
      dxz     :     0.006430
      dyz     :     0.008304
      dx2y2   :     0.008424
      dxy     :     0.015152
      f0      :     0.000611  f :     0.004060
      f+1     :     0.000681
      f-1     :     0.000494
      f+2     :     0.000407
      f-2     :     0.000626
      f+3     :     0.000624
      f-3     :     0.000617
  7 H s       :     0.516583  s :     0.516583
      pz      :     0.010662  p :     0.047493
      px      :     0.027240
      py      :     0.009592
  8 H s       :     0.603258  s :     0.603258
      pz      :     0.017859  p :     0.050266
      px      :     0.015317
      py      :     0.017089
  9 O s       :     3.812260  s :     3.812260
      pz      :     1.381562  p :     4.829991
      px      :     1.732023
      py      :     1.716407
      dz2     :     0.015957  d :     0.053669
      dxz     :     0.007128
      dyz     :     0.009469
      dx2y2   :     0.007366
      dxy     :     0.013748
      f0      :     0.000912  f :     0.004046
      f+1     :     0.000393
      f-1     :     0.000529
      f+2     :     0.000376
      f-2     :     0.000596
      f+3     :     0.000606
      f-3     :     0.000634
 10 H s       :     0.594969  s :     0.594969
      pz      :     0.012811  p :     0.050203
      px      :     0.019369
      py      :     0.018023
 11 H s       :     0.612550  s :     0.612550
      pz      :     0.019263  p :     0.046745
      px      :     0.013684
      py      :     0.013798
 12 O s       :     3.780896  s :     3.780896
      pz      :     1.690126  p :     4.879029
      px      :     1.348175
      py      :     1.840728
      dz2     :     0.007806  d :     0.050910
      dxz     :     0.015723
      dyz     :     0.009725
      dx2y2   :     0.006761
      dxy     :     0.010896
      f0      :     0.000561  f :     0.004253
      f+1     :     0.000507
      f-1     :     0.000463
      f+2     :     0.000679
      f-2     :     0.000757
      f+3     :     0.000509
      f-3     :     0.000776
 13 H s       :     0.578326  s :     0.578326
      pz      :     0.015647  p :     0.056790
      px      :     0.024352
      py      :     0.016792
 14 H s       :     0.608845  s :     0.608845
      pz      :     0.016738  p :     0.048449
      px      :     0.015803
      py      :     0.015907
 15 O s       :     3.791487  s :     3.791487
      pz      :     1.712744  p :     4.873965
      px      :     1.620849
      py      :     1.540372
      dz2     :     0.008620  d :     0.050747
      dxz     :     0.010769
      dyz     :     0.008474
      dx2y2   :     0.006460
      dxy     :     0.016423
      f0      :     0.000577  f :     0.004121
      f+1     :     0.000546
      f-1     :     0.000644
      f+2     :     0.000434
      f-2     :     0.000838
      f+3     :     0.000512
      f-3     :     0.000569
 16 H s       :     0.600636  s :     0.600636
      pz      :     0.017620  p :     0.047468
      px      :     0.013941
      py      :     0.015907
 17 H s       :     0.568658  s :     0.568658
      pz      :     0.013533  p :     0.046670
      px      :     0.016157
      py      :     0.016980


                     *******************************
                     * LOEWDIN POPULATION ANALYSIS *
                     *******************************

----------------------
LOEWDIN ATOMIC CHARGES
----------------------
   0 O :   -0.310648
   1 H :    0.173961
   2 H :    0.132953
   3 O :   -0.299707
   4 H :    0.141930
   5 H :    0.159933
   6 O :   -0.371673
   7 H :    0.216338
   8 H :    0.136397
   9 O :   -0.319520
  10 H :    0.146202
  11 H :    0.168573
  12 O :   -0.272645
  13 H :    0.117488
  14 H :    0.149193
  15 O :   -0.292148
  16 H :    0.162499
  17 H :    0.160874

-------------------------------
LOEWDIN REDUCED ORBITAL CHARGES
-------------------------------
  0 O s       :     3.421870  s :     3.421870
      pz      :     1.805711  p :     4.826308
      px      :     1.406624
      py      :     1.613974
      dz2     :     0.009084  d :     0.057522
      dxz     :     0.011448
      dyz     :     0.006850
      dx2y2   :     0.013465
      dxy     :     0.016675
      f0      :     0.000781  f :     0.004948
      f+1     :     0.000506
      f-1     :     0.000588
      f+2     :     0.000928
      f-2     :     0.000503
      f+3     :     0.001106
      f-3     :     0.000535
  1 H s       :     0.666677  s :     0.666677
      pz      :     0.041239  p :     0.159362
      px      :     0.047459
      py      :     0.070665
  2 H s       :     0.684047  s :     0.684047
      pz      :     0.061137  p :     0.183000
      px      :     0.080810
      py      :     0.041054
  3 O s       :     3.421621  s :     3.421621
      pz      :     1.327579  p :     4.815736
      px      :     1.785715
      py      :     1.702442
      dz2     :     0.012544  d :     0.057345
      dxz     :     0.011656
      dyz     :     0.017221
      dx2y2   :     0.007499
      dxy     :     0.008426
      f0      :     0.000840  f :     0.005005
      f+1     :     0.000845
      f-1     :     0.000887
      f+2     :     0.000579
      f-2     :     0.000966
      f+3     :     0.000513
      f-3     :     0.000374
  4 H s       :     0.680254  s :     0.680254
      pz      :     0.077053  p :     0.177816
      px      :     0.053345
      py      :     0.047419
  5 H s       :     0.659938  s :     0.659938
      pz      :     0.055932  p :     0.180129
      px      :     0.050297
      py      :     0.073900
  6 O s       :     3.462299  s :     3.462299
      pz      :     1.854603  p :     4.850365
      px      :     1.353705
      py      :     1.642058
      dz2     :     0.009319  d :     0.054460
      dxz     :     0.007052
      dyz     :     0.008809
      dx2y2   :     0.009826
      dxy     :     0.019453
      f0      :     0.000617  f :     0.004549
      f+1     :     0.000701
      f-1     :     0.000455
      f+2     :     0.000381
      f-2     :     0.000791
      f+3     :     0.000785
      f-3     :     0.000819
  7 H s       :     0.627123  s :     0.627123
      pz      :     0.030282  p :     0.156539
      px      :     0.095061
      py      :     0.031196
  8 H s       :     0.684534  s :     0.684534
      pz      :     0.055619  p :     0.179070
      px      :     0.053617
      py      :     0.069833
  9 O s       :     3.462529  s :     3.462529
      pz      :     1.387680  p :     4.790391
      px      :     1.699696
      py      :     1.703015
      dz2     :     0.021971  d :     0.061490
      dxz     :     0.007215
      dyz     :     0.010204
      dx2y2   :     0.005965
      dxy     :     0.016134
      f0      :     0.001390  f :     0.005110
      f+1     :     0.000436
      f-1     :     0.000787
      f+2     :     0.000377
      f-2     :     0.000755
      f+3     :     0.000648
      f-3     :     0.000717
 10 H s       :     0.678777  s :     0.678777
      pz      :     0.036357  p :     0.175021
      px      :     0.070378
      py      :     0.068286
 11 H s       :     0.671755  s :     0.671755
      pz      :     0.079629  p :     0.159672
      px      :     0.038623
      py      :     0.041420
 12 O s       :     3.410107  s :     3.410107
      pz      :     1.675584  p :     4.797189
      px      :     1.335948
      py      :     1.785658
      dz2     :     0.007137  d :     0.060016
      dxz     :     0.021679
      dyz     :     0.009049
      dx2y2   :     0.008615
      dxy     :     0.013536
      f0      :     0.000693  f :     0.005333
      f+1     :     0.000699
      f-1     :     0.000446
      f+2     :     0.000852
      f-2     :     0.001223
      f+3     :     0.000455
      f-3     :     0.000965
 13 H s       :     0.684612  s :     0.684612
      pz      :     0.053931  p :     0.197900
      px      :     0.083955
      py      :     0.060014
 14 H s       :     0.678700  s :     0.678700
      pz      :     0.065341  p :     0.172107
      px      :     0.054861
      py      :     0.051905
 15 O s       :     3.439689  s :     3.439689
      pz      :     1.684219  p :     4.787727
      px      :     1.596070
      py      :     1.507438
      dz2     :     0.009342  d :     0.059650
      dxz     :     0.011781
      dyz     :     0.011396
      dx2y2   :     0.006384
      dxy     :     0.020747
      f0      :     0.000621  f :     0.005082
      f+1     :     0.000714
      f-1     :     0.000663
      f+2     :     0.000403
      f-2     :     0.001102
      f+3     :     0.000715
      f-3     :     0.000865
 16 H s       :     0.672241  s :     0.672241
      pz      :     0.062836  p :     0.165260
      px      :     0.050046
      py      :     0.052378
 17 H s       :     0.670809  s :     0.670809
      pz      :     0.040374  p :     0.168317
      px      :     0.067539
      py      :     0.060405


                      *****************************
                      * MAYER POPULATION ANALYSIS *
                      *****************************

  NA   - Mulliken gross atomic population
  ZA   - Total nuclear charge
  QA   - Mulliken gross atomic charge
  VA   - Mayer's total valence
  BVA  - Mayer's bonded valence
  FA   - Mayer's free valence

  ATOM       NA         ZA         QA         VA         BVA        FA
  0 O      8.7181     8.0000    -0.7181     2.0627     1.6817     0.3810
  1 H      0.6255     1.0000     0.3745     0.8846     0.8403     0.0443
  2 H      0.6562     1.0000     0.3438     0.9059     0.8630     0.0429
  3 O      8.7554     8.0000    -0.7554     2.0365     1.6529     0.3837
  4 H      0.6527     1.0000     0.3473     0.9019     0.8580     0.0439
  5 H      0.5865     1.0000     0.4135     0.8612     0.8204     0.0408
  6 O      8.7923     8.0000    -0.7923     2.0035     1.6031     0.4004
  7 H      0.5641     1.0000     0.4359     0.8339     0.7882     0.0457
  8 H      0.6535     1.0000     0.3465     0.9034     0.8587     0.0447
  9 O      8.7000     8.0000    -0.7000     2.0751     1.6912     0.3839
 10 H      0.6452     1.0000     0.3548     0.9022     0.8562     0.0460
 11 H      0.6593     1.0000     0.3407     0.9039     0.8556     0.0483
 12 O      8.7151     8.0000    -0.7151     2.0582     1.6802     0.3780
 13 H      0.6351     1.0000     0.3649     0.9181     0.8768     0.0413
 14 H      0.6573     1.0000     0.3427     0.9020     0.8563     0.0457
 15 O      8.7203     8.0000    -0.7203     2.0619     1.6756     0.3863
 16 H      0.6481     1.0000     0.3519     0.8983     0.8522     0.0461
 17 H      0.6153     1.0000     0.3847     0.8836     0.8398     0.0438

  Mayer bond orders larger than 0.100000
B(  0-O ,  1-H ) :   0.8227 B(  0-O ,  2-H ) :   0.8512 B(  3-O ,  4-H ) :   0.8504 
B(  3-O ,  5-H ) :   0.7838 B(  6-O ,  7-H ) :   0.7426 B(  6-O ,  8-H ) :   0.8493 
B(  9-O , 10-H ) :   0.8332 B(  9-O , 11-H ) :   0.8494 B( 12-O , 13-H ) :   0.8255 
B( 12-O , 14-H ) :   0.8495 B( 15-O , 16-H ) :   0.8435 B( 15-O , 17-H ) :   0.8139 



                *******************************************
                * RELAXED MP2 DENSITY POPULATION ANALYSIS *
                *******************************************

------------------------------------------------------------------------------
                           ORCA POPULATION ANALYSIS
------------------------------------------------------------------------------
Input electron density              ... orcacalc.pmp2re
BaseName (.gbw .S,...)              ... orcacalc

                    ********************************
                    * MULLIKEN POPULATION ANALYSIS *
                    ********************************

-----------------------
MULLIKEN ATOMIC CHARGES
-----------------------
   0 O :   -0.703716
   1 H :    0.366001
   2 H :    0.337090
   3 O :   -0.732408
   4 H :    0.341952
   5 H :    0.398633
   6 O :   -0.769829
   7 H :    0.417689
   8 H :    0.340380
   9 O :   -0.680975
  10 H :    0.341362
  11 H :    0.333734
  12 O :   -0.691649
  13 H :    0.346511
  14 H :    0.336977
  15 O :   -0.694666
  16 H :    0.344130
  17 H :    0.368785
Sum of atomic charges:   -0.0000000

--------------------------------
MULLIKEN REDUCED ORBITAL CHARGES
--------------------------------
  0 O s       :     3.781809  s :     3.781809
      pz      :     1.849076  p :     4.870966
      px      :     1.399805
      py      :     1.622085
      dz2     :     0.008554  d :     0.046643
      dxz     :     0.008662
      dyz     :     0.007572
      dx2y2   :     0.010023
      dxy     :     0.011832
      f0      :     0.000673  f :     0.004299
      f+1     :     0.000584
      f-1     :     0.000530
      f+2     :     0.000709
      f-2     :     0.000524
      f+3     :     0.000804
      f-3     :     0.000475
  1 H s       :     0.587953  s :     0.587953
      pz      :     0.015430  p :     0.046046
      px      :     0.014346
      py      :     0.016270
  2 H s       :     0.610565  s :     0.610565
      pz      :     0.019459  p :     0.052345
      px      :     0.019493
      py      :     0.013392
  3 O s       :     3.784559  s :     3.784559
      pz      :     1.327401  p :     4.896246
      px      :     1.831931
      py      :     1.736914
      dz2     :     0.008113  d :     0.047469
      dxz     :     0.009074
      dyz     :     0.012856
      dx2y2   :     0.008233
      dxy     :     0.009192
      f0      :     0.000705  f :     0.004134
      f+1     :     0.000671
      f-1     :     0.000689
      f+2     :     0.000494
      f-2     :     0.000654
      f+3     :     0.000508
      f-3     :     0.000412
  4 H s       :     0.607376  s :     0.607376
      pz      :     0.018219  p :     0.050672
      px      :     0.017332
      py      :     0.015121
  5 H s       :     0.550368  s :     0.550368
      pz      :     0.015941  p :     0.050999
      px      :     0.014645
      py      :     0.020413
  6 O s       :     3.799591  s :     3.799591
      pz      :     1.902956  p :     4.920989
      px      :     1.374786
      py      :     1.643246
      dz2     :     0.008612  d :     0.045249
      dxz     :     0.006322
      dyz     :     0.008264
      dx2y2   :     0.008139
      dxy     :     0.013912
      f0      :     0.000605  f :     0.004001
      f+1     :     0.000675
      f-1     :     0.000492
      f+2     :     0.000408
      f-2     :     0.000612
      f+3     :     0.000607
      f-3     :     0.000603
  7 H s       :     0.535122  s :     0.535122
      pz      :     0.011432  p :     0.047189
      px      :     0.025648
      py      :     0.010109
  8 H s       :     0.608616  s :     0.608616
      pz      :     0.018695  p :     0.051004
      px      :     0.015092
      py      :     0.017217
  9 O s       :     3.818283  s :     3.818283
      pz      :     1.374993  p :     4.807413
      px      :     1.726634
      py      :     1.705785
      dz2     :     0.014535  d :     0.051314
      dxz     :     0.007084
      dyz     :     0.009132
      dx2y2   :     0.007511
      dxy     :     0.013051
      f0      :     0.000878  f :     0.003965
      f+1     :     0.000391
      f-1     :     0.000516
      f+2     :     0.000376
      f-2     :     0.000585
      f+3     :     0.000596
      f-3     :     0.000623
 10 H s       :     0.607498  s :     0.607498
      pz      :     0.013331  p :     0.051140
      px      :     0.019454
      py      :     0.018356
 11 H s       :     0.618659  s :     0.618659
      pz      :     0.018309  p :     0.047607
      px      :     0.014651
      py      :     0.014647
 12 O s       :     3.782913  s :     3.782913
      pz      :     1.681486  p :     4.855850
      px      :     1.342710
      py      :     1.831654
      dz2     :     0.007832  d :     0.048725
      dxz     :     0.014408
      dyz     :     0.009633
      dx2y2   :     0.006647
      dxy     :     0.010205
      f0      :     0.000549  f :     0.004160
      f+1     :     0.000498
      f-1     :     0.000460
      f+2     :     0.000662
      f-2     :     0.000732
      f+3     :     0.000508
      f-3     :     0.000751
 13 H s       :     0.595719  s :     0.595719
      pz      :     0.016276  p :     0.057770
      px      :     0.024033
      py      :     0.017461
 14 H s       :     0.613539  s :     0.613539
      pz      :     0.017098  p :     0.049485
      px      :     0.015598
      py      :     0.016789
 15 O s       :     3.792947  s :     3.792947
      pz      :     1.706564  p :     4.849191
      px      :     1.605544
      py      :     1.537083
      dz2     :     0.008401  d :     0.048488
      dxz     :     0.010363
      dyz     :     0.008003
      dx2y2   :     0.006596
      dxy     :     0.015124
      f0      :     0.000571  f :     0.004040
      f+1     :     0.000537
      f-1     :     0.000633
      f+2     :     0.000434
      f-2     :     0.000811
      f+3     :     0.000500
      f-3     :     0.000553
 16 H s       :     0.607575  s :     0.607575
      pz      :     0.017800  p :     0.048295
      px      :     0.014341
      py      :     0.016154
 17 H s       :     0.583652  s :     0.583652
      pz      :     0.014356  p :     0.047563
      px      :     0.016209
      py      :     0.016998


                     *******************************
                     * LOEWDIN POPULATION ANALYSIS *
                     *******************************

----------------------
LOEWDIN ATOMIC CHARGES
----------------------
   0 O :   -0.313182
   1 H :    0.174145
   2 H :    0.134356
   3 O :   -0.296686
   4 H :    0.144176
   5 H :    0.156135
   6 O :   -0.368856
   7 H :    0.210340
   8 H :    0.138619
   9 O :   -0.319946
  10 H :    0.144194
  11 H :    0.170428
  12 O :   -0.270870
  13 H :    0.113727
  14 H :    0.151057
  15 O :   -0.289084
  16 H :    0.163718
  17 H :    0.157728

-------------------------------
LOEWDIN REDUCED ORBITAL CHARGES
-------------------------------
  0 O s       :     3.422583  s :     3.422583
      pz      :     1.804829  p :     4.829468
      px      :     1.410461
      py      :     1.614178
      dz2     :     0.009003  d :     0.056168
      dxz     :     0.011178
      dyz     :     0.006866
      dx2y2   :     0.013030
      dxy     :     0.016090
      f0      :     0.000785  f :     0.004963
      f+1     :     0.000507
      f-1     :     0.000590
      f+2     :     0.000932
      f-2     :     0.000504
      f+3     :     0.001110
      f-3     :     0.000534
  1 H s       :     0.666550  s :     0.666550
      pz      :     0.041967  p :     0.159305
      px      :     0.046736
      py      :     0.070603
  2 H s       :     0.682818  s :     0.682818
      pz      :     0.061550  p :     0.182826
      px      :     0.079563
      py      :     0.041714
  3 O s       :     3.421846  s :     3.421846
      pz      :     1.332467  p :     4.813528
      px      :     1.778968
      py      :     1.702093
      dz2     :     0.012087  d :     0.056294
      dxz     :     0.011385
      dyz     :     0.016749
      dx2y2   :     0.007592
      dxy     :     0.008480
      f0      :     0.000845  f :     0.005018
      f+1     :     0.000845
      f-1     :     0.000888
      f+2     :     0.000583
      f-2     :     0.000967
      f+3     :     0.000516
      f-3     :     0.000375
  4 H s       :     0.678152  s :     0.678152
      pz      :     0.075771  p :     0.177673
      px      :     0.053870
      py      :     0.048032
  5 H s       :     0.663745  s :     0.663745
      pz      :     0.055192  p :     0.180120
      px      :     0.050963
      py      :     0.073965
  6 O s       :     3.462650  s :     3.462650
      pz      :     1.851683  p :     4.848013
      px      :     1.357509
      py      :     1.638821
      dz2     :     0.009288  d :     0.053609
      dxz     :     0.006978
      dyz     :     0.008819
      dx2y2   :     0.009709
      dxy     :     0.018815
      f0      :     0.000620  f :     0.004583
      f+1     :     0.000713
      f-1     :     0.000457
      f+2     :     0.000382
      f-2     :     0.000793
      f+3     :     0.000788
      f-3     :     0.000829
  7 H s       :     0.633829  s :     0.633829
      pz      :     0.031209  p :     0.155831
      px      :     0.092954
      py      :     0.031668
  8 H s       :     0.682522  s :     0.682522
      pz      :     0.056258  p :     0.178859
      px      :     0.052724
      py      :     0.069878
  9 O s       :     3.464721  s :     3.464721
      pz      :     1.391440  p :     4.789805
      px      :     1.698585
      py      :     1.699780
      dz2     :     0.021146  d :     0.060293
      dxz     :     0.007145
      dyz     :     0.010041
      dx2y2   :     0.006041
      dxy     :     0.015920
      f0      :     0.001402  f :     0.005127
      f+1     :     0.000433
      f-1     :     0.000784
      f+2     :     0.000377
      f-2     :     0.000759
      f+3     :     0.000651
      f-3     :     0.000721
 10 H s       :     0.680475  s :     0.680475
      pz      :     0.036362  p :     0.175332
      px      :     0.070485
      py      :     0.068485
 11 H s       :     0.669630  s :     0.669630
      pz      :     0.078424  p :     0.159942
      px      :     0.039413
      py      :     0.042105
 12 O s       :     3.411022  s :     3.411022
      pz      :     1.673708  p :     4.795675
      px      :     1.340885
      py      :     1.781082
      dz2     :     0.007132  d :     0.058831
      dxz     :     0.020962
      dyz     :     0.009101
      dx2y2   :     0.008454
      dxy     :     0.013182
      f0      :     0.000695  f :     0.005342
      f+1     :     0.000698
      f-1     :     0.000446
      f+2     :     0.000854
      f-2     :     0.001221
      f+3     :     0.000459
      f-3     :     0.000968
 13 H s       :     0.688139  s :     0.688139
      pz      :     0.054306  p :     0.198134
      px      :     0.083273
      py      :     0.060555
 14 H s       :     0.676543  s :     0.676543
      pz      :     0.065530  p :     0.172400
      px      :     0.054228
      py      :     0.052642
 15 O s       :     3.440244  s :     3.440244
      pz      :     1.683926  p :     4.785150
      px      :     1.591246
      py      :     1.509978
      dz2     :     0.009289  d :     0.058590
      dxz     :     0.011613
      dyz     :     0.011068
      dx2y2   :     0.006510
      dxy     :     0.020111
      f0      :     0.000625  f :     0.005100
      f+1     :     0.000714
      f-1     :     0.000667
      f+2     :     0.000404
      f-2     :     0.001107
      f+3     :     0.000718
      f-3     :     0.000864
 16 H s       :     0.671015  s :     0.671015
      pz      :     0.062821  p :     0.165267
      px      :     0.050288
      py      :     0.052158
 17 H s       :     0.673826  s :     0.673826
      pz      :     0.041076  p :     0.168446
      px      :     0.067375
      py      :     0.059995


                      *****************************
                      * MAYER POPULATION ANALYSIS *
                      *****************************

  NA   - Mulliken gross atomic population
  ZA   - Total nuclear charge
  QA   - Mulliken gross atomic charge
  VA   - Mayer's total valence
  BVA  - Mayer's bonded valence
  FA   - Mayer's free valence

  ATOM       NA         ZA         QA         VA         BVA        FA
  0 O      8.7037     8.0000    -0.7037     2.0719     1.6952     0.3767
  1 H      0.6340     1.0000     0.3660     0.8950     0.8508     0.0443
  2 H      0.6629     1.0000     0.3371     0.9119     0.8691     0.0428
  3 O      8.7324     8.0000    -0.7324     2.0626     1.6841     0.3785
  4 H      0.6580     1.0000     0.3420     0.9062     0.8622     0.0440
  5 H      0.6014     1.0000     0.3986     0.8808     0.8403     0.0405
  6 O      8.7698     8.0000    -0.7698     2.0268     1.6317     0.3951
  7 H      0.5823     1.0000     0.4177     0.8563     0.8110     0.0453
  8 H      0.6596     1.0000     0.3404     0.9077     0.8630     0.0447
  9 O      8.6810     8.0000    -0.6810     2.0885     1.7098     0.3787
 10 H      0.6586     1.0000     0.3414     0.9167     0.8710     0.0457
 11 H      0.6663     1.0000     0.3337     0.9091     0.8607     0.0484
 12 O      8.6916     8.0000    -0.6916     2.0811     1.7082     0.3729
 13 H      0.6535     1.0000     0.3465     0.9422     0.9015     0.0407
 14 H      0.6630     1.0000     0.3370     0.9063     0.8606     0.0458
 15 O      8.6947     8.0000    -0.6947     2.0884     1.7075     0.3809
 16 H      0.6559     1.0000     0.3441     0.9052     0.8590     0.0461
 17 H      0.6312     1.0000     0.3688     0.9034     0.8599     0.0435

  Mayer bond orders larger than 0.100000
B(  0-O ,  1-H ) :   0.8283 B(  0-O ,  2-H ) :   0.8558 B(  3-O ,  4-H ) :   0.8532 
B(  3-O ,  5-H ) :   0.7882 B(  6-O ,  7-H ) :   0.7458 B(  6-O ,  8-H ) :   0.8521 
B(  9-O , 10-H ) :   0.8360 B(  9-O , 11-H ) :   0.8533 B( 12-O , 13-H ) :   0.8283 
B( 12-O , 14-H ) :   0.8523 B( 15-O , 16-H ) :   0.8470 B( 15-O , 17-H ) :   0.8186 



----------------------------------
MP2 DERIVATIVE INTEGRAL GENERATION
----------------------------------


Input Wavefunction Amplitudes       ... orcacalc.mp2tsaa.tmp
Input Correlated Electron Density   ... orcacalc.pmp2re
Input Energy Weighted Density       ... orcacalc.wmp2.tmp
Input SCF Electron Density          ... orcacalc.scfp

One-Electron Terms    ...
                        ... One-Electron Terms done
Prescreening matrices              ... done

Batch handling in the gradient evaluation:
Memory available                      ... 8000.0 MB
Memory per occupied orbital in Q2     ...   12.2 MB
Memory per occupied orbital in Q3     ...    0.1 MB
Total memory requirement per |i>      ...   12.3 MB
Max. Number of orbitals possible      ...    651
Number of orbitals treated per batch  ...     24
Number of batches to be done          ...      1
Batch   0: i=    6 ...    29

---------------------------------------
MP2 TOTAL ENERGY:     -457.913997904 Eh
---------------------------------------

The final MP2 gradient
  0:   0.04792817   0.01179971   0.02590973
  1:  -0.02148444   0.00855745  -0.01049020
  2:  -0.02485758  -0.02132901  -0.01575235
  3:  -0.01532524   0.02213190  -0.01921366
  4:   0.00909467  -0.00988047   0.02123510
  5:   0.00364644  -0.01185801  -0.00381040
  6:  -0.06354815   0.01182865   0.01550008
  7:   0.05574204   0.00994048  -0.00902862
  8:   0.00574880  -0.01971465  -0.00700344
  9:  -0.00305097  -0.00012562  -0.01950053
 10:   0.01226257   0.00983177   0.01414241
 11:  -0.00628200  -0.00829587   0.00704257
 12:  -0.04774690  -0.02222784  -0.03012686
 13:   0.05738341   0.01575517   0.01925096
 14:  -0.01314680   0.00343841   0.01029977
 15:  -0.00413091  -0.00298333   0.00078877
 16:   0.00419498  -0.00394916  -0.00261522
 17:   0.00357191   0.00708042   0.00337186

-----------------------------------
NORM OF THE MP2 GRADIENT:  0.155445
-----------------------------------

-------------------------   --------------------
FINAL SINGLE POINT ENERGY      -457.913997903754
-------------------------   --------------------


                            ***************************************
                            *     ORCA property calculations      *
                            ***************************************

                                    ---------------------
                                    Active property flags
                                    ---------------------
   (+) Dipole Moment


------------------------------------------------------------------------------
                       ORCA ELECTRIC PROPERTIES CALCULATION
------------------------------------------------------------------------------

Dipole Moment Calculation                       ... on
Quadrupole Moment Calculation                   ... off
Polarizability Calculation                      ... off
GBWName                                         ... orcacalc.gbw
Electron density file                           ... orcacalc.scfp
The origin for moment calculation is the CENTER OF MASS  = ( 0.009831, -0.031987  0.025754)

-------------
DIPOLE MOMENT
-------------
                                X             Y             Z
Electronic contribution:      0.01716       0.06350      -0.01098
Nuclear contribution   :      0.33356       1.08337       0.34793
                        -----------------------------------------
Total Dipole Moment    :      0.35072       1.14687       0.33695
                        -----------------------------------------
Magnitude (a.u.)       :      1.24573
Magnitude (Debye)      :      3.16640



--------------------
Rotational spectrum 
--------------------
 
Rotational constants in cm-1:     0.045469     0.031114     0.019416 
Rotational constants in MHz :  1363.129345   932.780994   582.079311 

 Dipole components along the rotational axes: 
x,y,z [a.u.] :     1.234417     0.105471    -0.130149 
x,y,z [Debye]:     3.137639     0.268086    -0.330813 

 

                         *** MP2 UNRELAXED DENSITY ***

------------------------------------------------------------------------------
                       ORCA ELECTRIC PROPERTIES CALCULATION
------------------------------------------------------------------------------

Dipole Moment Calculation                       ... on
Quadrupole Moment Calculation                   ... off
Polarizability Calculation                      ... off
GBWName                                         ... orcacalc.gbw
Electron density file                           ... orcacalc.pmp2ur
The origin for moment calculation is the CENTER OF MASS  = ( 0.009831, -0.031987  0.025754)

-------------
DIPOLE MOMENT
-------------
                                X             Y             Z
Electronic contribution:      0.01128       0.05595      -0.01400
Nuclear contribution   :      0.33356       1.08337       0.34793
                        -----------------------------------------
Total Dipole Moment    :      0.34484       1.13931       0.33392
                        -----------------------------------------
Magnitude (a.u.)       :      1.23630
Magnitude (Debye)      :      3.14244



--------------------
Rotational spectrum 
--------------------
 
Rotational constants in cm-1:     0.045469     0.031114     0.019416 
Rotational constants in MHz :  1363.129345   932.780994   582.079311 

 Dipole components along the rotational axes: 
x,y,z [a.u.] :     1.225395     0.101253    -0.128848 
x,y,z [Debye]:     3.114708     0.257365    -0.327506 

 

                           *** MP2 RELAXED DENSITY ***

------------------------------------------------------------------------------
                       ORCA ELECTRIC PROPERTIES CALCULATION
------------------------------------------------------------------------------

Dipole Moment Calculation                       ... on
Quadrupole Moment Calculation                   ... off
Polarizability Calculation                      ... off
GBWName                                         ... orcacalc.gbw
Electron density file                           ... orcacalc.pmp2re
The origin for moment calculation is the CENTER OF MASS  = ( 0.009831, -0.031987  0.025754)

-------------
DIPOLE MOMENT
-------------
                                X             Y             Z
Electronic contribution:      0.00060       0.05916      -0.01600
Nuclear contribution   :      0.33356       1.08337       0.34793
                        -----------------------------------------
Total Dipole Moment    :      0.33416       1.14252       0.33193
                        -----------------------------------------
Magnitude (a.u.)       :      1.23580
Magnitude (Debye)      :      3.14115



--------------------
Rotational spectrum 
--------------------
 
Rotational constants in cm-1:     0.045469     0.031114     0.019416 
Rotational constants in MHz :  1363.129345   932.780994   582.079311 

 Dipole components along the rotational axes: 
x,y,z [a.u.] :     1.225851     0.089962    -0.128037 
x,y,z [Debye]:     3.115866     0.228666    -0.325443 

 

Timings for individual modules:

Sum of individual times         ...       24.877 sec (=   0.415 min)
GTO integral calculation        ...        1.053 sec (=   0.018 min)   4.2 %
SCF iterations                  ...        4.257 sec (=   0.071 min)  17.1 %
MP2 module                      ...       19.567 sec (=   0.326 min)  78.7 %
                             ****ORCA TERMINATED NORMALLY****
TOTAL RUN TIME: 0 days 0 hours 0 minutes 26 seconds 132 msec
