12
energy=-0.3136046659 Properties=species:S:1:pos:R:3:forces:R:3 pbc="T T T" Lattice="200.000 0.000 0.000 0.000 200.000 0.000 0.000 0.000 200.000"
O   -0.2578386641   -1.3535187864    0.3351143253    0.1417840086   -0.3723003934   -0.1222482511
H   -0.1970063274   -0.3868480722    0.4579962530    0.0130432073    0.4977650948    0.1883230361
C    0.9605246102   -1.9847942216    0.2990027804   -0.2481423267    0.0778432393    0.0530742581
H    0.9214898885   -2.8453620597    0.8647504714    0.0446374395   -0.0409818448   -0.0064066753
H    1.7858055033   -1.4054890362    0.8015666011    0.0073153033    0.0381202067    0.0010613515
H    1.3337512418   -2.3533092464   -0.7796942366    0.0337729852   -0.0382816720   -0.0366706187
O   -0.2423274181    1.6213119917    0.3724549136    0.0106217422   -0.1836569978    0.1054435196
H   -1.0087031507    2.0897226366    0.8687640695   -0.0203086312   -0.0073029620    0.0830656644
C   -0.4092980338    1.6259006681   -1.0785730207   -0.0335600978    0.0480307817   -0.3547047905
H   -0.6921361554    2.6531591185   -1.3003093208    0.0195337006   -0.0088229983    0.0628218251
H   -1.2709486690    1.0623952892   -1.2774453728    0.0348060545    0.0008505210    0.0239128038
H    0.4991572809    1.2112676611   -1.5784911439   -0.0035044139   -0.0112629753    0.0023283912
12
energy=-0.3077167479 Properties=species:S:1:pos:R:3:forces:R:3 pbc="T T T" Lattice="200.000 0.000 0.000 0.000 200.000 0.000 0.000 0.000 200.000"
O    0.3997286854    1.3452241589   -0.1926249942    0.0516210704    0.4491506726    0.0794758899
H    0.2693410194    0.3526736887    0.1808901491   -0.0554283603   -0.4626242826    0.0380975810
C    0.2991962409    2.1760394862    0.9267031937    0.0280620504   -0.0983745280   -0.3256081281
H   -0.7177624918    2.0809468133    1.3578967337   -0.0295383780   -0.0085319494    0.0370470282
H    0.4671178921    3.1702550538    0.5358264701   -0.0016645323    0.0722372056    0.0657225439
H    0.9242004715    1.9102334772    1.7253768927    0.0070252828   -0.0082552986    0.0404167163
O   -0.2108070623   -1.4114874986    0.2347669557   -0.0243735456   -0.0555707994    0.2063109894
H    0.0345522246   -2.1613514701    0.7836017691    0.0623137751    0.0446898900    0.0855046131
C   -0.4985067913   -2.0089154564   -1.0386561937   -0.0845826154   -0.0207955981   -0.3888397870
H   -1.0280618317   -2.9212533261   -0.7677253965    0.0278836159    0.0427805887    0.0805778648
H    0.4474784506   -2.2180544461   -1.4853973792   -0.0064493556    0.0272737501    0.0550915458
H   -1.0208960663   -1.1530270932   -1.6654031165    0.0251299642    0.0180193207    0.0262036569
12
energy=-0.3027166285 Properties=species:S:1:pos:R:3:forces:R:3 pbc="T T T" Lattice="200.000 0.000 0.000 0.000 200.000 0.000 0.000 0.000 200.000"
O    0.7579139235    1.0127530427   -0.4443803312    0.4764763590    0.3654813131   -0.1677814630
H    0.0097912858    0.3747299275   -0.0125404538   -0.2043219839   -0.2721898564    0.4855014460
C    1.6729582703    1.3454725770    0.5817542263   -0.2252024284   -0.0254040438   -0.3192991547
H    1.0951469456    1.5845051932    1.4963634343   -0.0318636838   -0.0241899688    0.0357455357
H    2.1557105001    2.2474594055    0.2176873858    0.0671685324    0.0331307236    0.0591770290
H    2.4771107237    0.5752435378    0.8531559454    0.0530624310   -0.0221248586    0.0343144596
O   -1.0870142564   -0.8527117030    0.5386950852   -0.1514487861    0.0251289357    0.1191721830
H   -0.9717390629   -1.6319165923    1.1432561421    0.1173009340    0.0457085612    0.1060754968
C   -1.3094949623   -1.4360219279   -0.7490711755   -0.1283386807   -0.2252055137   -0.4804960220
H   -2.1163867792   -2.0937874306   -0.6841130597    0.0161964085    0.0500670956    0.0936627240
H   -0.3818747619   -1.9698800180   -1.0233718366   -0.0108654828    0.0611490652    0.0415300040
H   -1.3745246509   -0.5479399015   -1.4938656282    0.0218368950   -0.0115514531   -0.0076017242
12
energy=-0.2951173591 Properties=species:S:1:pos:R:3:forces:R:3 pbc="T T T" Lattice="200.000 0.000 0.000 0.000 200.000 0.000 0.000 0.000 200.000"
O    0.7142532335   -0.1133040215   -1.4045763837    0.4170329637   -0.3567441897   -0.5709258407
H   -0.0490838001   -0.0214429150   -0.6959151365   -0.0947461870    0.1292030857    0.6134158947
C    1.0344761410   -1.4717262751   -1.2143683013   -0.0433889117    0.4060229850   -0.0756691143
H    2.0513808815   -1.7558622723   -1.4705599521    0.0468511595   -0.0778915761   -0.0120918991
H    0.4745951513   -2.0462354243   -1.8632953008    0.0015015244   -0.0525101580   -0.0124451687
H    1.0821064956   -1.7250118867   -0.1529980183   -0.0530855709    0.0075199631    0.0499159147
O   -0.9452767526    0.2905898864    0.7672607429   -0.2997757385   -0.1499452048   -0.0698882455
H   -1.7951580638    0.5500181583    0.3950482638   -0.1533133502   -0.0130432073    0.0333631513
C   -0.7133391242    1.2941057814    1.8532347694    0.1909460758    0.2155083403    0.2062909348
H   -1.0616841764    0.7135424820    2.7496516701   -0.0080089869   -0.0454041425   -0.0825401309
H   -1.1966917394    2.1706265426    1.4891219939    0.0050306208   -0.0470069684   -0.0471962016
H    0.3352094617    1.4165851220    2.0532143409   -0.0090441132   -0.0157089273   -0.0322308374
12
energy=-0.2932501138 Properties=species:S:1:pos:R:3:forces:R:3 pbc="T T T" Lattice="200.000 0.000 0.000 0.000 200.000 0.000 0.000 0.000 200.000"
O   -0.4604312531    1.0226014289    0.9677708860    0.3927782032    0.4925179871    1.0205393119
H   -0.5496434944    0.4483735715    0.0999639196   -0.0097054009   -0.3194107406   -0.6557419123
C    0.8624708668    1.0828182025    1.4287350183   -0.6478517103    0.1319865621   -0.0787688365
H    1.4991137779    1.6127954991    0.6844593977    0.0691981614    0.0114784338   -0.0412980905
H    1.4054530324    0.0892365283    1.5570541402    0.0935439390   -0.0755071348    0.0310959524
H    0.8756688381    1.6512270582    2.4146164265    0.1432438811    0.0080593806    0.0722582886
O   -0.4825457031   -0.4089296128   -1.2432913028   -0.1224405696   -0.1798517648   -0.4288389561
H   -1.2518400296   -0.4128147663   -1.7654744252   -0.1057093717    0.1244902532   -0.0601478776
C    0.1433778365   -1.6995261559   -1.0505107665    0.2530418213   -0.3721471556    0.1385701294
H    0.3959266911   -2.0725377567   -2.0277162414   -0.0459085930    0.1149308910    0.0136520446
H   -0.4318570896   -2.3407321171   -0.4906201668   -0.0248250313    0.0726820064   -0.0030940658
H    1.0406637719   -1.3685250355   -0.6055011809    0.0046351851   -0.0092282042   -0.0082265023
12
energy=-0.2859477207 Properties=species:S:1:pos:R:3:forces:R:3 pbc="T T T" Lattice="200.000 0.000 0.000 0.000 200.000 0.000 0.000 0.000 200.000"
O    1.2272728760   -0.2798290283    0.0816037697    0.3059371306   -0.1642158569   -0.0180522309
H    0.2975826578   -0.2612920942    0.3214738786   -0.4404274331    0.1008962662    0.0945698093
C    1.8785897364   -1.4947382123    0.3985906185   -0.0206639576    0.1565776231   -0.0590639004
H    1.2915366446   -2.1454772808    0.9563850554   -0.0238166446    0.0038772239    0.0032113081
H    2.8925512325   -1.3020665320    0.9381144769    0.0377890486   -0.0301302460    0.0090137741
H    2.0951039138   -1.9739806362   -0.5213494996    0.0218322670   -0.0309267738   -0.0034699611
O   -1.5811916998    0.5780510292    0.3877848853    0.1785009071   -0.1686690079    0.1308239092
H   -1.4720137836    1.1791141395    1.1218333635   -0.0434896990    0.0532269816    0.0700178292
C   -1.4580486318    1.1452370936   -0.9595280265   -0.0500856075    0.1393085503   -0.3220908587
H   -2.5010518352    1.4679979162   -1.1499080590   -0.0039055060   -0.0225974274    0.0556577027
H   -1.0918062968    0.4338312702   -1.5935331014    0.0234299506    0.0148969728    0.0175920034
H   -0.9048345171    2.0324434426   -0.8401312090    0.0148995439   -0.0522437917    0.0217895867
12
energy=-0.2889571095 Properties=species:S:1:pos:R:3:forces:R:3 pbc="T T T" Lattice="200.000 0.000 0.000 0.000 200.000 0.000 0.000 0.000 200.000"
O   -0.1522770017   -1.3853523750    0.6611212795    0.1481768000   -0.4245107607    0.0116481266
H   -0.0552368202   -0.3669163367    0.5641166179   -0.0618041824    0.4320718615   -0.1668085575
C    1.0964088675   -2.0107225327    0.3080803054   -0.2685430034    0.0335431286    0.1196915459
H    0.9868166518   -2.9126203567    0.7323728187    0.0652916270   -0.0422170028   -0.0188230476
H    1.8266710990   -1.3554463937    0.8355865503    0.0199450771    0.0362381591   -0.0137240355
H    1.3863874512   -2.0624333881   -0.7898404784    0.0373889849   -0.0058261202   -0.0352919931
O   -0.1744805190    1.4468589654    0.0798497853    0.1217355731    0.0263414681    0.2140716078
H   -0.2066015127    1.9763443846    0.8027396846    0.0195666107    0.0363065504    0.0846556348
C   -0.7687893546    1.8388140581   -1.1191563758   -0.1482924996   -0.0097989891   -0.3327131151
H   -0.2908246532    2.7723508213   -1.4291325060    0.0266721120   -0.0419028140    0.0730085366
H   -1.7966830391    1.9623133825   -0.9836826001    0.0460325202   -0.0312836429    0.0445088844
H   -0.5673651089    1.0585088460   -1.8298334476   -0.0061701338   -0.0089623521    0.0197769270
12
energy=-0.2818312638 Properties=species:S:1:pos:R:3:forces:R:3 pbc="T T T" Lattice="200.000 0.000 0.000 0.000 200.000 0.000 0.000 0.000 200.000"
O    0.4900716548   -1.2204578378    0.6679465435   -0.0440126614   -0.3608080756    0.1142598330
H    0.0598116212   -0.3734498779    0.3504661175   -0.0645547487    0.4251802760   -0.0917009722
C   -0.4537686773   -2.1433428350    0.9679665503    0.2298448126    0.0946531130   -0.0462469502
H   -1.2330969020   -2.0780644783    0.2205309747   -0.0336984232    0.0232268335   -0.0062812055
H   -0.8060603689   -2.1670112619    1.9521811240   -0.0247026468   -0.0177015324    0.0195234162
H    0.1441022330   -3.0435839027    0.7914450073   -0.0338912559   -0.0793355077    0.0111791574
O   -0.2321237613    1.4775502244   -0.1499139937   -0.0783014099   -0.0315772629    0.0837243811
H    0.4981737631    2.0100523698    0.3709268480    0.0305174541   -0.0121320083    0.0807573279
C    0.1504128289    1.8183159797   -1.5086476361    0.0512194641    0.0017329237   -0.2640631129
H   -0.2630579430    2.7599563955   -1.7633196475   -0.0210773911   -0.0216049815    0.0598552860
H   -0.1189615746    0.8291692151   -2.0917203354    0.0152132185    0.0033156949   -0.0022965095
H    1.2391184516    1.8547771864   -1.6112041842   -0.0265553839   -0.0249499869    0.0412893487
12
energy=-0.2812382733 Properties=species:S:1:pos:R:3:forces:R:3 pbc="T T T" Lattice="200.000 0.000 0.000 0.000 200.000 0.000 0.000 0.000 200.000"
O   -0.3230812527    1.2328981662    0.8814450216    0.0917251405    0.2991453039    0.0720993944
H   -0.8783818753    1.7884361528    1.5199511385   -0.0011827075   -0.1153808340    0.1433462110
C   -0.6688453387    1.6488383163   -0.5050473782   -0.0953977046    0.1508281217   -0.4528479192
H   -1.7069972902    1.3975453053   -0.7330251395    0.0526243150   -0.0545978939    0.0565118232
H   -0.1551825024    1.1087466991   -1.2822559386   -0.0394062726    0.0034499065    0.0253875887
H   -0.4053715626    2.6709348231   -0.8459636406    0.0335606121   -0.0186595255    0.1009548873
O   -0.0787745410   -1.3723803508    0.1279588675    0.2957344782   -0.5439590803   -0.4101223522
H   -0.0495670676   -0.4182322826    0.5648640060   -0.1449233258    0.3652190605    0.3579155844
C    1.1090603389   -1.5881461822   -0.5807668445   -0.3692932309   -0.1078223044    0.2616431904
H    1.9625178111   -1.3042101319    0.0187836266    0.0344281023    0.0371699269   -0.0028266710
H    1.2422300828   -1.0362381213   -1.5176436271    0.0503663720    0.0279226966   -0.0794537785
H    1.1243617381   -2.7159804977   -0.8098118453    0.0917647355   -0.0433158924   -0.0726069302
12
energy=-0.2780890724 Properties=species:S:1:pos:R:3:forces:R:3 pbc="T T T" Lattice="200.000 0.000 0.000 0.000 200.000 0.000 0.000 0.000 200.000"
O    1.3268725397    0.0919709774    0.1867199080    0.5933911133    0.1568851270    0.2423146639
H    0.3611088511    0.2782160151   -0.0436881745   -0.4720180658   -0.0340424368   -0.1661868647
C    1.7852404983    1.1536555123    1.0696145016   -0.0178501421   -0.3127253576   -0.1832749318
H    1.1110845857    1.3164915445    1.9731955331   -0.0293013222    0.0235086264    0.0314985872
H    2.0885912295    2.0304548392    0.5339044865    0.0187454003    0.0427718469    0.0093372189
H    2.7143275815    0.8370585001    1.5215224094    0.0450760698    0.0633740981    0.0607613429
O   -1.3214724617    0.0092769883   -0.4640003464   -0.3008941684    0.1894975162   -0.0166880034
H   -1.9941380628    0.7425459857   -0.6817645286    0.0426602610    0.0973959661    0.0070098562
C   -1.7171048799   -1.3201023613   -0.7739131695    0.0370346869   -0.3730490987   -0.0172310204
H   -2.4040211221   -1.5598519379    0.0372839982    0.0338151513    0.0673299977   -0.0047868802
H   -0.7119953975   -1.7498753326   -0.6741707761    0.0200736323   -0.0063146298    0.0180121216
H   -2.0625977013   -1.5188977296   -1.7882037538    0.0292673837    0.0853683446    0.0192333957
12
energy=-0.2751378615 Properties=species:S:1:pos:R:3:forces:R:3 pbc="T T T" Lattice="200.000 0.000 0.000 0.000 200.000 0.000 0.000 0.000 200.000"
O    0.1758976974   -0.5690573854    1.3743481160   -0.1253238049   -0.5781429278    0.4918165901
H    0.2324838758   -0.0166190667    0.5468987519   -0.2040499611    0.3926604466   -0.4022825438
C   -1.0342936556   -1.2472411863    1.4129981399    0.3412589484    0.1902565059    0.0549023125
H   -1.8482266901   -0.9622807417    0.7439358315   -0.0238927492    0.0331965438   -0.0429579948
H   -1.3637942812   -1.3474758496    2.4365179956   -0.0642359319   -0.0424977673    0.0204500418
H   -0.8504655160   -2.2651424431    1.1497095966   -0.0301194473   -0.0628696476    0.0024281500
O    0.2580368477    1.1892295506   -0.7437513549    0.0586401826    0.0216332636    0.0557086106
H    1.1333508203    1.6362626981   -0.4138024386    0.0668939386    0.1650704916    0.0349515790
C    0.5359812292    0.5589612658   -2.0326254792    0.0137811140   -0.1668964892   -0.3455984566
H    1.0714019807    1.2951994633   -2.7016706439   -0.0297939456    0.0112650322    0.0757899562
H   -0.4693748267    0.3871126201   -2.5207521587    0.0010382115    0.0140114848    0.0139220104
H    1.1440780327   -0.3703597273   -1.8677023152   -0.0041965549    0.0223146060    0.0408687162
12
energy=-0.2715207336 Properties=species:S:1:pos:R:3:forces:R:3 pbc="T T T" Lattice="200.000 0.000 0.000 0.000 200.000 0.000 0.000 0.000 200.000"
O    1.2057284541    0.3567277356   -0.7069097520    0.1696203161    0.0294612449    0.0975003529
H    1.8713186840    0.8764567999   -0.2176934721    0.0700718223   -0.0166684630    0.0382914422
C    0.5099958348    1.1369453993   -1.7447071540   -0.2249067515    0.0524175983   -0.1998575200
H    1.1210212276    1.5357428220   -2.4919050439    0.0386570531   -0.0409448209    0.0605962780
H   -0.0468402247    1.9617356571   -1.3890703512    0.0239349153   -0.0287331084    0.0358874606
H   -0.1736657984    0.5046201569   -2.2470316471    0.0037101021   -0.0093356763    0.0246861917
O   -0.6713201227   -1.2133913581    0.7261523934   -0.3614662781   -0.1097074374    0.3678544415
H    0.1276736586   -0.8240157624    0.3323296053    0.2054440134    0.2830861924   -0.2588849108
C   -1.1236732301   -0.3123616484    1.7212648786    0.1019612172   -0.2581511179   -0.2452529208
H   -1.2869311480    0.6523280277    1.2228856366    0.0158739921    0.0460201789   -0.0188137917
H   -0.6093603027   -0.3670341161    2.6822080742   -0.0017000135    0.0202772637    0.0470928432
H   -2.1740317811   -0.5665501442    2.0821507825   -0.0411998743    0.0322781457    0.0508996188
12
energy=-0.2700971427 Properties=species:S:1:pos:R:3:forces:R:3 pbc="T T T" Lattice="200.000 0.000 0.000 0.000 200.000 0.000 0.000 0.000 200.000"
O    0.7665393051   -0.3010142308   -1.3098669272    0.2536732843   -0.2861139237   -0.0740138380
H    0.0523657296    0.0599873355   -0.7856281691   -0.3180028044    0.1386673171    0.1345725779
C    0.7513730826   -1.6590219372   -0.9983052937   -0.0238752657    0.2874015323   -0.1269770244
H    1.2711668165   -2.1532832321   -1.7656061372    0.0220976049   -0.0556988404    0.0042634036
H   -0.2215841400   -2.2624692513   -1.0345317778   -0.0209539781   -0.0153469159    0.0266494862
H    1.2825745147   -1.7122813158    0.0580463035    0.0140125133   -0.0302464598    0.0489003289
O   -1.1027472339    0.9005669872    0.5512170680   -0.0308794655   -0.0311931401   -0.0345407167
H   -2.0447139105    0.9515829791    0.7627659680   -0.0439627820   -0.0266289174   -0.0947467012
C   -0.3227537758    1.0181381915    1.7430031819    0.1982495520    0.0435210664    0.2154173233
H   -0.6787305226    0.5773010354    2.6416246178   -0.0335616405   -0.0132643222   -0.0441633281
H   -0.1263700537    2.0615382924    1.7394468916   -0.0175729772   -0.0283428149   -0.0376543228
H    0.6949453919    0.5968642106    1.5531731614    0.0007749306    0.0172449044   -0.0177061603
12
energy=-0.2718311067 Properties=species:S:1:pos:R:3:forces:R:3 pbc="T T T" Lattice="200.000 0.000 0.000 0.000 200.000 0.000 0.000 0.000 200.000"
O    0.8151179680    1.0607836377   -0.7888263057    0.2932929585    0.8464488754   -0.2408871873
H    0.2850339074    0.2794169130   -0.3146860278   -0.1805793871   -0.3689029374    0.2698470670
C    0.4204963361    2.1382586109    0.0627980269    0.1465148388   -0.3574157619   -0.4042021296
H    0.6982164818    1.8537584712    1.0870443565   -0.0002720227   -0.0130802312    0.0853585744
H   -0.6468915726    2.3625844710   -0.1131262863   -0.0512852843    0.0186744379    0.0331055268
H    1.0274752756    3.0195211694   -0.1886224304   -0.0033331784    0.0908854182    0.0668152628
O   -0.4248113745   -0.9165260574    0.5449051254   -0.2660109808   -0.2383124844    0.3840451935
H   -0.3686697522   -0.9421012293    1.5936589581    0.0686772559    0.1212002694    0.0464809206
C   -0.7950918253   -2.2470578453    0.0867079815   -0.0653970422   -0.2720643865   -0.3286461438
H    0.0982309186   -2.6173487117   -0.2589945801    0.0007343071    0.0401812032    0.0206264195
H   -1.6946595155   -2.0929905942   -0.5993480301    0.0266474294    0.0209282671    0.0235826742
H   -1.1309401726   -2.8563970749    0.8846786238    0.0310116202    0.1114578445    0.0438738218
12
energy=-0.2652634754 Properties=species:S:1:pos:R:3:forces:R:3 pbc="T T T" Lattice="200.000 0.000 0.000 0.000 200.000 0.000 0.000 0.000 200.000"
O   -1.0515945732    1.2913488434    0.1905080461   -0.3502444404    0.2168026338    0.1588988152
H   -0.3902309509    0.6844744166   -0.2844579215    0.2682776655   -0.3389069031    0.1077204887
C   -1.6199212977    0.6560331000    1.3021616364    0.1754448937    0.1625189287   -0.1829962242
H   -2.5047441509    0.0211470722    1.1315211026   -0.0616833405   -0.0281834065    0.0149658784
H   -1.9792206996    1.4878274976    1.9624800334   -0.0430011893   -0.0009111990    0.0385583228
H   -0.8431832600   -0.0421564307    1.7169713204    0.0351701228   -0.0237338550   -0.0556880417
O    0.6667092256   -0.9426385135   -0.4522692263   -0.1501658055    0.0340290671   -0.0501776530
H    0.0487143146   -1.5556377531   -0.9728543225   -0.0690834902   -0.0881806175   -0.0088697923
C    2.0019177888   -0.9377045215   -0.9677477050    0.3293202871    0.0549917869   -0.0923020961
H    2.0385885202   -0.5758786175   -2.0595053144   -0.0403128437   -0.0086533054    0.0346764709
H    2.5033749046   -1.9543298207   -0.8226500730   -0.0750710757    0.0230340007    0.0266942234
H    2.6846541360   -0.2446275090   -0.5010934256   -0.0186497553   -0.0028076449    0.0085201223
12
energy=-0.2673828886 Properties=species:S:1:pos:R:3:forces:R:3 pbc="T T T" Lattice="200.000 0.000 0.000 0.000 200.000 0.000 0.000 0.000 200.000"
O    1.0295643902    1.2351818509   -0.0358029691    0.2388184775    0.4259464648    0.2717923638
H    0.5354000795    0.3192460739   -0.1851315646   -0.3629035249   -0.3164467726   -0.0995366667
C    0.8342164005    1.7851658698    1.2461751564    0.1310054291   -0.0654001275   -0.3951225352
H   -0.1015857560    2.4713421285    1.1657633400   -0.0375710191    0.0196077484    0.0301544143
H    1.6218461840    2.4494931916    1.4508578322   -0.0022270897    0.0371992375    0.0858455414
H    0.7603089519    0.9534088205    1.9966353147   -0.0322838021   -0.0333754926    0.0460160651
O   -0.5618108669   -1.1226496055   -0.1558286474    0.1177256803   -0.0478744586    0.2096709073
H   -0.1484870086   -1.7052878384    0.5313867965    0.0276553019   -0.0552895207    0.0834425882
C   -1.3082842373   -1.8165644821   -1.0835735528   -0.1677310694   -0.0772595989   -0.3370989032
H   -2.2326823518   -2.1532530112   -0.6720772417    0.0669407327    0.0598660847    0.0535000328
H   -0.7595537048   -2.7278014175   -1.3807560888    0.0193059009    0.0549866447    0.0428350961
H   -1.4515576743   -1.0193979026   -1.8021977546    0.0012644686   -0.0019607234    0.0085016103
12
energy=-0.2619462442 Properties=species:S:1:pos:R:3:forces:R:3 pbc="T T T" Lattice="200.000 0.000 0.000 0.000 200.000 0.000 0.000 0.000 200.000"
O   -0.4919293679   -0.6142547990    1.1709328120   -0.1142048114   -0.1196612069    0.1421547617
H   -0.9612271224   -1.2302123049    1.6284504231   -0.0490962470   -0.0852017371   -0.0610451927
C    0.0542020684    0.3205662714    2.0892346036    0.2183257554    0.2481227864    0.1018851125
H   -0.0082565689    1.3148339873    1.6075043232   -0.0101759128   -0.0143153892    0.0004669124
H    1.1469752736   -0.0206339599    2.0685645430   -0.0375792466   -0.0112033257   -0.0142691094
H   -0.4270619001    0.2927463495    3.0419806531   -0.0358848895   -0.0477201924   -0.0586283555
O   -0.0484654134   -0.4300097510   -1.5779508018    0.1981256248    0.2792063974   -0.5211909316
H   -0.2650730948   -0.6049947270   -0.6221595140   -0.0407401611    0.0318513425    0.3849219398
C    0.5216133774    0.8066262190   -1.7600885584   -0.2269286672   -0.4382990738   -0.0375663911
H    1.4633648315    0.9027365798   -1.0640157714    0.0712766414    0.0237791065    0.0564737709
H   -0.0505586749    1.5988980431   -1.3343055584   -0.0198694867    0.0542662216    0.0264921347
H    0.8188549782    0.8920548018   -2.7869447565    0.0467524291    0.0791750709   -0.0196941375
12
energy=-0.2605544634 Properties=species:S:1:pos:R:3:forces:R:3 pbc="T T T" Lattice="200.000 0.000 0.000 0.000 200.000 0.000 0.000 0.000 200.000"
O    1.5360751321   -0.1035728044   -0.4324766526    0.2026420249   -0.2667910536   -0.1353495653
H    0.6501229455    0.2114908210   -0.0911774628   -0.3268078049    0.1237878278    0.2187916393
C    1.7249338990   -1.4556695193   -0.3854313032    0.0397579996    0.2971053905   -0.0072921633
H    1.6094894591   -1.8113387383    0.6500931686   -0.0222801532   -0.0115216283    0.0207292637
H    2.7689877909   -1.7023477392   -0.7259548589    0.0275833110   -0.0706420930   -0.0083663703
H    1.1720158657   -2.0400465959   -1.2240683658   -0.0144619421   -0.0411289119   -0.0276866693
O   -1.0194191896    0.8727885127    0.7421774907    0.1680437156   -0.0123901471    0.0020198588
H   -0.9971196767    1.8297748913    0.8666547365    0.0468038512    0.0642503301    0.0452251937
C   -2.2043847422    0.6093841142    0.0667914116   -0.2306495680   -0.1021288531   -0.1634229286
H   -2.6863330503    1.4344622380   -0.4961550964    0.0502007930   -0.0031753126    0.0216363489
H   -2.9983105988    0.1851232260    0.5715915241    0.0562531702    0.0092755125    0.0217448495
H   -2.0073241958   -0.2336024590   -0.6703829118    0.0029146028    0.0133589388    0.0119705430
12
energy=-0.2621717994 Properties=species:S:1:pos:R:3:forces:R:3 pbc="T T T" Lattice="200.000 0.000 0.000 0.000 200.000 0.000 0.000 0.000 200.000"
O   -0.0039124663    1.4095169217   -0.3836115369    0.4815897694    1.0418542729   -0.0399348915
H   -0.3627471438    0.4621956159   -0.3266846849   -0.0894137186   -0.4781450051    0.4779028072
C    0.5484466228    1.5081358551    0.8797747912   -0.2988773950    0.0078732327   -0.4444779494
H    1.4801506479    0.8486141254    1.0503523019    0.0652052379   -0.0433889117    0.0470074826
H   -0.1728607757    1.2840897750    1.6354028676    0.0135306885   -0.0633098205    0.0108104612
H    1.0964085730    2.5764008663    0.9771713047    0.0623415430    0.0353608986    0.0607669993
O   -0.7880914481   -1.0759119371    0.0149272047   -0.2486370070   -0.0668018931   -0.0562140895
H   -1.6167171405   -0.9669582946   -0.5243970075   -0.3028816313   -0.1824691480   -0.0121345794
C    0.3133730156   -1.8141366253   -0.4750986931    0.4632336341   -0.3898826266   -0.1405431941
H    0.7508127301   -1.2961775450   -1.2826363520   -0.0542014298    0.0361805664    0.0415973669
H   -0.0030208597   -2.8114976352   -0.7198938566   -0.0638209559    0.0785770322    0.0471596919
H    1.1311026951   -1.7461443121    0.2211998168   -0.0280687353    0.0241508880    0.0080598948
12
energy=-0.2560836327 Properties=species:S:1:pos:R:3:forces:R:3 pbc="T T T" Lattice="200.000 0.000 0.000 0.000 200.000 0.000 0.000 0.000 200.000"
O   -0.1878637434    0.6923734173   -1.1525024598   -0.0217026834    0.0252657184    0.1072263226
H   -0.0576807458    1.6364383626   -1.1619537172    0.0023967825    0.0629776340    0.0553573978
C   -0.0062411564    0.1856859448   -2.4468836855    0.0308588967   -0.1700964845   -0.1744647891
H   -0.8020385050   -0.3835728664   -2.7732190879    0.0018023434    0.0199373638    0.0245746058
H    0.7354780789   -0.5365096326   -2.4168786049   -0.0053808051    0.0238531542    0.0145257055
H    0.1344996569    0.9763360770   -3.1324319169   -0.0070396810    0.0124924770    0.0590731564
O    0.6216712917   -0.1468019350    1.5535983117   -0.0440615124   -0.1296057204    0.2900780509
H    0.3659079704    0.0107136082    0.6715594234   -0.0838740193    0.0622279002   -0.3128909367
C   -0.4211144758   -0.8183717995    2.0907039231    0.1897685104    0.1351937565   -0.0589230040
H   -1.3330712528   -0.2286637746    1.9341710866   -0.0187284310   -0.0011626529   -0.0306218409
H   -0.3255454708   -0.8475657001    3.1583030064   -0.0254580370   -0.0278260231    0.0410517788
H   -0.5116140466   -1.7486938457    1.5975254467   -0.0185813639   -0.0132571231   -0.0149874757
12
energy=-0.2573408259 Properties=species:S:1:pos:R:3:forces:R:3 pbc="T T T" Lattice="200.000 0.000 0.000 0.000 200.000 0.000 0.000 0.000 200.000"
O    0.2915829608   -1.6520159613    0.2076432851   -0.1529060875   -0.3625775090    0.0644117954
H    0.5227042003   -0.7808205362   -0.0954876884   -0.0495564745    0.3517547065   -0.0551702215
C   -1.1440576722   -1.9448508911    0.1096276075    0.2383675060    0.0080809778    0.0431698537
H   -1.4422488769   -2.1647023137   -0.9508061041   -0.0244933590   -0.0051715173   -0.0142809365
H   -1.5995096162   -0.9889230667    0.4163162718    0.0216522898    0.0583954136   -0.0210959030
H   -1.4691493969   -2.7780641018    0.7686874146   -0.0413423135   -0.0271333679   -0.0024600317
O    0.5507566241    1.1837820438    0.1563487320    0.0035085276    0.0117766818    0.0427492212
H    0.7477901461    1.2114463302    1.1641068931    0.0232725991   -0.0914047811    0.0846484357
C    0.2653534109    2.3655399951   -0.5179934522   -0.0502429590    0.1415248414   -0.1816679922
H   -0.6304467154    2.7224706139   -0.0287897166    0.0264006034   -0.0419912599    0.0134129320
H   -0.0796280129    2.1301308566   -1.5923529497    0.0014598725    0.0044120134    0.0073970643
H    1.0495024078    3.0684699862   -0.5937323386    0.0038808234   -0.0476677419    0.0188862968
12
energy=-0.2547412406 Properties=species:S:1:pos:R:3:forces:R:3 pbc="T T T" Lattice="200.000 0.000 0.000 0.000 200.000 0.000 0.000 0.000 200.000"
O   -0.9389943673    1.1965621901    0.0246955721    0.1247591906    0.5058625277    0.2142644405
H   -0.7519809393    0.1683824770   -0.1650120507   -0.0948989105   -0.5200653026    0.0529282194
C   -0.1299513309    1.4638271171    1.1763468961   -0.3078762567    0.0175889180   -0.2978808353
H   -0.4161874617    0.7032664447    1.9283134398    0.0026209828   -0.0526417985    0.0361502274
H   -0.3195217779    2.4499978670    1.6452339282    0.0498706633    0.0129208228    0.0652972834
H    0.9517723901    1.3393113603    0.9844573779    0.0419953737    0.0649635542    0.0446035010
O   -0.0877015882   -1.5317136221   -0.4213126941   -0.1545824468    0.0673716496    0.0314389376
H    0.1237699311   -2.0937106144    0.3267163633   -0.0615475863   -0.0445376807    0.0858943924
C    1.1612217732   -1.0113205410   -0.8009681057    0.5161510549    0.0347350921   -0.2373267234
H    1.7969745463   -1.7928419964   -1.2922245922   -0.0918727219   -0.0115787068    0.0306907465
H    1.5931328643   -0.4576423233    0.0238816773   -0.0241750564   -0.0746221610   -0.0521779714
H    1.0315993950   -0.3885257577   -1.6283187235   -0.0004453151    0.0000030853    0.0261177821
12
energy=-0.2582126243 Properties=species:S:1:pos:R:3:forces:R:3 pbc="T T T" Lattice="200.000 0.000 0.000 0.000 200.000 0.000 0.000 0.000 200.000"
O    0.4141337568   -0.4639786867   -1.3363583118    0.0219973318   -0.1647599024   -0.2306907056
H    0.2258531260   -0.3821597813   -0.4182023498   -0.0717867483    0.1188965608    0.3721450988
C    0.3140656606   -1.7485886312   -1.7325467711    0.0280065146    0.1999737339    0.0056235173
H   -0.0627537305   -1.6688144390   -2.7493347432   -0.0060508346   -0.0353758110   -0.0322313516
H   -0.4462200665   -2.3698131046   -1.0407883251   -0.0057320178   -0.0105559219    0.0336763117
H    1.1697118269   -2.4087825242   -1.6471830401    0.0018527371   -0.0285685578   -0.0036339975
O   -0.6148539635    0.4627076056    1.3874471384   -0.0050948984   -0.1934472451   -0.1734677152