
                                 *****************
                                 * O   R   C   A *
                                 *****************

           --- An Ab Initio, DFT and Semiempirical electronic structure package ---

                  #######################################################
                  #                        -***-                        #
                  #          Department of theory and spectroscopy      #
                  #               Directorship: Frank Neese             #
                  #        Max Planck Institute fuer Kohlenforschung    #
                  #                Kaiser Wilhelm Platz 1               #
                  #                 D-45470 Muelheim/Ruhr               #
                  #                      Germany                        #
                  #                                                     #
                  #                  All rights reserved                #
                  #                        -***-                        #
                  #######################################################


                         Program Version 4.2.0 -  RELEASE  -


 With contributions from (in alphabetic order):
   Daniel Aravena         : Magnetic Suceptibility
   Michael Atanasov       : Ab Initio Ligand Field Theory (pilot matlab implementation)
   Alexander A. Auer      : GIAO ZORA, VPT2
   Ute Becker             : Parallelization
   Giovanni Bistoni       : ED, misc. LED, open-shell LED, HFLED
   Martin Brehm           : Molecular dynamics
   Dmytro Bykov           : SCF Hessian
   Vijay G. Chilkuri      : MRCI spin determinant printing, contributions to CSF-ICE
   Dipayan Datta          : RHF DLPNO-CCSD density
   Achintya Kumar Dutta   : EOM-CC, STEOM-CC
   Dmitry Ganyushin       : Spin-Orbit,Spin-Spin,Magnetic field MRCI
   Miquel Garcia          : C-PCM Hessian, Gaussian charge scheme
   Yang Guo               : DLPNO-NEVPT2, CIM, IAO-localization
   Andreas Hansen         : Spin unrestricted coupled pair/coupled cluster methods
   Benjamin Helmich-Paris : CASSCF linear response (MC-RPA)
   Lee Huntington         : MR-EOM, pCC
   Robert Izsak           : Overlap fitted RIJCOSX, COSX-SCS-MP3, EOM
   Christian Kollmar      : KDIIS, OOCD, Brueckner-CCSD(T), CCSD density
   Simone Kossmann        : Meta GGA functionals, TD-DFT gradient, OOMP2, MP2 Hessian
   Martin Krupicka        : AUTO-CI
   Lucas Lang             : DCDCAS
   Dagmar Lenk            : GEPOL surface, SMD
   Dimitrios Liakos       : Extrapolation schemes; Compound Job, initial MDCI parallelization
   Dimitrios Manganas     : Further ROCIS development; embedding schemes
   Dimitrios Pantazis     : SARC Basis sets
   Taras Petrenko         : DFT Hessian,TD-DFT gradient, ASA, ECA, R-Raman, ABS, FL, XAS/XES, NRVS
   Peter Pinski           : DLPNO-MP2, DLPNO-MP2 Gradient
   Christoph Reimann      : Effective Core Potentials
   Marius Retegan         : Local ZFS, SOC
   Christoph Riplinger    : Optimizer, TS searches, QM/MM, DLPNO-CCSD(T), (RO)-DLPNO pert. Triples
   Tobias Risthaus        : Range-separated hybrids, TD-DFT gradient, RPA, STAB
   Michael Roemelt        : Original ROCIS implementation
   Masaaki Saitow         : Open-shell DLPNO-CCSD energy and density
   Barbara Sandhoefer     : DKH picture change effects
   Avijit Sen             : IP-ROCIS
   Kantharuban Sivalingam : CASSCF convergence, NEVPT2, FIC-MRCI
   Bernardo de Souza      : ESD, SOC TD-DFT
   Georgi Stoychev        : AutoAux, RI-MP2 NMR
   Willem Van den Heuvel  : Paramagnetic NMR
   Boris Wezisla          : Elementary symmetry handling
   Frank Wennmohs         : Technical directorship


 We gratefully acknowledge several colleagues who have allowed us to
 interface, adapt or use parts of their codes:
   Stefan Grimme, W. Hujo, H. Kruse,             : VdW corrections, initial TS optimization,
                  C. Bannwarth                     DFT functionals, gCP, sTDA/sTD-DF
   Ed Valeev, F. Pavosevic, A. Kumar             : LibInt (2-el integral package), F12 methods
   Garnet Chan, S. Sharma, J. Yang, R. Olivares  : DMRG
   Ulf Ekstrom                                   : XCFun DFT Library
   Mihaly Kallay                                 : mrcc  (arbitrary order and MRCC methods)
   Andreas Klamt, Michael Diedenhofen            : otool_cosmo (COSMO solvation model)
   Jiri Pittner, Ondrej Demel                    : Mk-CCSD
   Frank Weinhold                                : gennbo (NPA and NBO analysis)
   Christopher J. Cramer and Donald G. Truhlar   : smd solvation model
   Lars Goerigk                                  : TD-DFT with DH, B97 family of functionals
   V. Asgeirsson, H. Jonsson                     : NEB implementation
   FAccTs GmbH                                   : IRC, NEB, NEB-TS, Multilevel, MM, QM/MM, CI optimization
   S Lehtola, MJT Oliveira, MAL Marques          : LibXC Library


 Your calculation uses the libint2 library for the computation of 2-el integrals
 For citations please refer to: http://libint.valeyev.net

 Your ORCA version has been built with support for libXC version: 4.2.3
 For citations please refer to: https://tddft.org/programs/libxc/

 This ORCA versions uses:
   CBLAS   interface :  Fast vector & matrix operations
   LAPACKE interface :  Fast linear algebra routines
   SCALAPACK package :  Parallel linear algebra routines


----- Orbital basis set information -----
Your calculation utilizes the basis: def2-TZVP
   F. Weigend and R. Ahlrichs, Phys. Chem. Chem. Phys. 7, 3297 (2005).

================================================================================
                                        WARNINGS
                       Please study these warnings very carefully!
================================================================================


WARNING: The frozen-core approximation for MP2-gradient calculations is turned on by default.

INFO   : the flag for use of LIBINT has been found!

================================================================================
                                       INPUT FILE
================================================================================
NAME = orcacalc.inp
|  1> ! engrad MP2 def2-TZVP TightSCF FrozenCore 
|  2> %pal nprocs 24 end
|  3> 
|  4> %maxcore 8000
|  5> 
|  6> %scf    ConvForced true end 
|  7> *xyz 0 1 
|  8> O   -1.351094339878829 0.2953023025911181 1.950015681796117
|  9> H   -1.0782088981911921 1.1079624401148174 1.6170555040908758
| 10> C   -2.681753811959076 0.1290074838809651 1.3702713923110705
| 11> H   -2.6886280054600387 -0.4743727414747135 0.4280463350094949
| 12> H   -3.1006465075003824 1.0811611164831578 1.1253496349598988
| 13> H   -3.486125665048651 -0.30458166123444574 2.04666503532604
| 14> O   -0.9323855607517205 -2.613982241623974 -0.6250947216807019
| 15> H   -0.9949082216905104 -2.6706517738222013 0.29597240343442766
| 16> C   -0.4093849516931407 -3.825046165778461 -1.1769464605795696
| 17> H   0.18478291518555093 -4.328722230037332 -0.4194685644540573
| 18> H   0.15599910830914662 -3.481431342675159 -2.0389171176024017
| 19> H   -1.218391336694515 -4.526496032733969 -1.4194877017088627
| 20> O   1.706060579314433 1.7951844372214527 -0.6317217295281647
| 21> H   0.9830998441385144 1.125703751980046 -0.5282096790933922
| 22> C   1.1513754486227366 2.892793861989987 -1.316756520632332
| 23> H   0.3931519382103387 2.5365046699775675 -2.0472518316934587
| 24> H   1.9166790270710838 3.4809330649036183 -1.7564759201072073
| 25> H   0.5840690444896038 3.5112069030867117 -0.6373990163638565
| 26> O   -0.020242728107723096 -0.14848651923245326 -1.466411561322242
| 27> H   -0.21202269328899426 -1.0338161119412315 -1.1758519248461983
| 28> C   0.6913917065687338 -0.1918104879747557 -2.6573999286022545
| 29> H   1.703514477515624 -0.490715400743633 -2.521795008309846
| 30> H   0.8160909868224292 0.6809204157153331 -3.3226179885660265
| 31> H   0.266872222624285 -0.8805966744053165 -3.390435440995875
| 32> O   0.918590525349852 1.7138251070156545 1.9434385444522113
| 33> H   1.8228103930501651 1.8484370909239474 1.6091879571844832
| 34> C   0.9439785982732298 1.3003892878035574 3.312501360084639
| 35> H   1.2343004333677168 2.098783418343618 3.9390530390838565
| 36> H   1.6291436426136117 0.37376798957183655 3.412300423232778
| 37> H   -0.0569679540740599 1.007464761730025 3.5096549363666236
| 38> O   -0.821517606744802 -2.3769151558756385 2.0251442137332285
| 39> H   -0.6553781813727595 -1.4219542245627705 2.0887880083873505
| 40> C   0.294838501617959 -3.143608442784531 2.4554128983431545
| 41> H   -0.08478543798313906 -4.021582541527181 2.933974780581019
| 42> H   0.8949819739830153 -2.5913306446810673 3.143251222441
| 43> H   0.9579362663059743 -3.4747907801879045 1.6658112637555678
| 44> *
| 45> 
| 46>                          ****END OF INPUT****
================================================================================

                     *******************************
                     * Energy+Gradient Calculation *
                     *******************************

---------------------------------
CARTESIAN COORDINATES (ANGSTROEM)
---------------------------------
  O     -1.351094    0.295302    1.950016
  H     -1.078209    1.107962    1.617056
  C     -2.681754    0.129007    1.370271
  H     -2.688628   -0.474373    0.428046
  H     -3.100647    1.081161    1.125350
  H     -3.486126   -0.304582    2.046665
  O     -0.932386   -2.613982   -0.625095
  H     -0.994908   -2.670652    0.295972
  C     -0.409385   -3.825046   -1.176946
  H      0.184783   -4.328722   -0.419469
  H      0.155999   -3.481431   -2.038917
  H     -1.218391   -4.526496   -1.419488
  O      1.706061    1.795184   -0.631722
  H      0.983100    1.125704   -0.528210
  C      1.151375    2.892794   -1.316757
  H      0.393152    2.536505   -2.047252
  H      1.916679    3.480933   -1.756476
  H      0.584069    3.511207   -0.637399
  O     -0.020243   -0.148487   -1.466412
  H     -0.212023   -1.033816   -1.175852
  C      0.691392   -0.191810   -2.657400
  H      1.703514   -0.490715   -2.521795
  H      0.816091    0.680920   -3.322618
  H      0.266872   -0.880597   -3.390435
  O      0.918591    1.713825    1.943439
  H      1.822810    1.848437    1.609188
  C      0.943979    1.300389    3.312501
  H      1.234300    2.098783    3.939053
  H      1.629144    0.373768    3.412300
  H     -0.056968    1.007465    3.509655
  O     -0.821518   -2.376915    2.025144
  H     -0.655378   -1.421954    2.088788
  C      0.294839   -3.143608    2.455413
  H     -0.084785   -4.021583    2.933975
  H      0.894982   -2.591331    3.143251
  H      0.957936   -3.474791    1.665811

----------------------------
CARTESIAN COORDINATES (A.U.)
----------------------------
  NO LB      ZA    FRAG     MASS         X           Y           Z
   0 O     8.0000    0    15.999   -2.553198    0.558040    3.684996
   1 H     1.0000    0     1.008   -2.037520    2.093746    3.055792
   2 C     6.0000    0    12.011   -5.067780    0.243789    2.589438
   3 H     1.0000    0     1.008   -5.080771   -0.896435    0.808890
   4 H     1.0000    0     1.008   -5.859373    2.043098    2.126603
   5 H     1.0000    0     1.008   -6.587823   -0.575576    3.867636
   6 O     8.0000    0    15.999   -1.761953   -4.939711   -1.181258
   7 H     1.0000    0     1.008   -1.880104   -5.046800    0.559307
   8 C     6.0000    0    12.011   -0.773625   -7.228290   -2.224106
   9 H     1.0000    0     1.008    0.349189   -8.180100   -0.792681
  10 H     1.0000    0     1.008    0.294796   -6.578952   -3.852995
  11 H     1.0000    0     1.008   -2.302426   -8.553838   -2.682443
  12 O     8.0000    0    15.999    3.223987    3.392407   -1.193781
  13 H     1.0000    0     1.008    1.857789    2.127272   -0.998172
  14 C     6.0000    0    12.011    2.175784    5.466588   -2.488309
  15 H     1.0000    0     1.008    0.742949    4.793299   -3.868745
  16 H     1.0000    0     1.008    3.621998    6.578010   -3.319258
  17 H     1.0000    0     1.008    1.103731    6.635219   -1.204510
  18 O     8.0000    0    15.999   -0.038253   -0.280599   -2.771116
  19 H     1.0000    0     1.008   -0.400665   -1.953629   -2.222038
  20 C     6.0000    0    12.011    1.306541   -0.362469   -5.021758
  21 H     1.0000    0     1.008    3.219176   -0.927318   -4.765502
  22 H     1.0000    0     1.008    1.542188    1.286753   -6.278838
  23 H     1.0000    0     1.008    0.504315   -1.664087   -6.406994
  24 O     8.0000    0    15.999    1.735885    3.238660    3.672567
  25 H     1.0000    0     1.008    3.444612    3.493040    3.040925
  26 C     6.0000    0    12.011    1.783861    2.457380    6.259720
  27 H     1.0000    0     1.008    2.332490    3.966126    7.443731
  28 H     1.0000    0     1.008    3.078635    0.706319    6.448313
  29 H     1.0000    0     1.008   -0.107654    1.903832    6.632287
  30 O     8.0000    0    15.999   -1.552443   -4.491719    3.826968
  31 H     1.0000    0     1.008   -1.238485   -2.687104    3.947237
  32 C     6.0000    0    12.011    0.557164   -5.940559    4.640058
  33 H     1.0000    0     1.008   -0.160221   -7.599690    5.544409
  34 H     1.0000    0     1.008    1.691271   -4.896905    5.939884
  35 H     1.0000    0     1.008    1.810237   -6.566403    3.147927

--------------------------------
INTERNAL COORDINATES (ANGSTROEM)
--------------------------------
 O      0   0   0     0.000000000000     0.00000000     0.00000000
 H      1   0   0     0.919644193883     0.00000000     0.00000000
 C      1   2   0     1.460962709503   103.13091540     0.00000000
 H      3   1   2     1.118884716802   113.64995352    95.29595196
 H      3   1   2     1.068669405232   110.27619160   335.72177691
 H      3   1   2     1.136891369092   116.85510811   220.59373990
 O      4   3   1     2.961658728316   133.26644951    27.48939121
 H      7   4   3     0.924924412035    69.51694449    34.03194989
 C      7   4   3     1.429946085414   165.00991974   128.55929579
 H      9   7   8     1.086507153615   108.87916115   335.04094477
 H      9   7   8     1.086611105930   103.21614265   212.97218284
 H      9   7   8     1.097884101567   110.90735405    90.23558498
 O      2   1   3     3.644369581028   128.07844567   244.30762243
 H     13   2   1     0.990752924347    41.46303258    41.67660541
 C     13   2   1     1.407726787617    98.41075599   147.67895277
 H     15  13   2     1.111516207515   109.79597735   284.02738034
 H     15  13   2     1.060636808462   110.47450616   158.20067145
 H     15  13   2     1.079721197428   110.32987323    37.84907850
 O     14  13   2     1.873627480678   142.93845993   157.85682076
 H     19  14  13     0.951321683302   126.00850858   134.01109970
 C     19  14  13     1.388075583634   100.15583031    10.46388897
 H     21  19  14     1.064013789739   112.77362895    60.24601914
 H     21  19  14     1.104411249514   123.36896626   298.57841651
 H     21  19  14     1.091780319156   113.35501789   180.90596240
 O      2   1   3     2.112061409627   118.55971169   188.26483037
 H     25   2   1     0.973374239666   149.86708617   104.27377044
 C     25   2   1     1.430351958086    94.69073126   316.57723378
 H     27  25   2     1.055597916856   110.75563486   234.61087326
 H     27  25   2     1.156735934139   108.94358053   109.64987507
 H     27  25   2     1.061399223324   103.93502975   353.84135451
 O      8   7   4     1.762492739164   163.76880308   286.63303089
 H     31   8   7     0.971392413803   104.17863769    26.87383148
 C     31   8   7     1.420985819009   106.52525275   268.20702056
 H     33  31   8     1.069567355856   107.42992315   258.51946063
 H     33  31   8     1.066913545606   110.96725022   138.68007487
 H     33  31   8     1.082982514857   115.16686890    17.61502725

---------------------------
INTERNAL COORDINATES (A.U.)
---------------------------
 O      0   0   0     0.000000000000     0.00000000     0.00000000
 H      1   0   0     1.737875667090     0.00000000     0.00000000
 C      1   2   0     2.760819412832   103.13091540     0.00000000
 H      3   1   2     2.114385690186   113.64995352    95.29595196
 H      3   1   2     2.019492503589   110.27619160   335.72177691
 H      3   1   2     2.148413331603   116.85510811   220.59373990
 O      4   3   1     5.596723898655   133.26644951    27.48939121
 H      7   4   3     1.747853833324    69.51694449    34.03194989
 C      7   4   3     2.702206487705   165.00991974   128.55929579
 H      9   7   8     2.053200962879   108.87916115   335.04094477
 H      9   7   8     2.053397404284   103.21614265   212.97218284
 H      9   7   8     2.074700278748   110.90735405    90.23558498
 O      2   1   3     6.886860438936   128.07844567   244.30762243
 H     13   2   1     1.872251693398    41.46303258    41.67660541
 C     13   2   1     2.660218099981    98.41075599   147.67895277
 H     15  13   2     2.100461225619   109.79597735   284.02738034
 H     15  13   2     2.004313095549   110.47450616   158.20067145
 H     15  13   2     2.040377364128   110.32987323    37.84907850
 O     14  13   2     3.540642815470   142.93845993   157.85682076
 H     19  14  13     1.797737446701   126.00850858   134.01109970
 C     19  14  13     2.623082706251   100.15583031    10.46388897
 H     21  19  14     2.010694665322   112.77362895    60.24601914
 H     21  19  14     2.087034800804   123.36896626   298.57841651
 H     21  19  14     2.063165801610   113.35501789   180.90596240
 O      2   1   3     3.991217642218   118.55971169   188.26483037
 H     25   2   1     1.839410738782   149.86708617   104.27377044
 C     25   2   1     2.702973475901    94.69073126   316.57723378
 H     27  25   2     1.994790970395   110.75563486   234.61087326
 H     27  25   2     2.185914124788   108.94358053   109.64987507
 H     27  25   2     2.005753850838   103.93502975   353.84135451
 O      8   7   4     3.330628590045   163.76880308   286.63303089
 H     31   8   7     1.835665630657   104.17863769    26.87383148
 C     31   8   7     2.685274038114   106.52525275   268.20702056
 H     33  31   8     2.021189384350   107.42992315   258.51946063
 H     33  31   8     2.016174409767   110.96725022   138.68007487
 H     33  31   8     2.046540360905   115.16686890    17.61502725

---------------------
BASIS SET INFORMATION
---------------------
There are 3 groups of distinct atoms

 Group   1 Type O   : 11s6p2d1f contracted to 5s3p2d1f pattern {62111/411/11/1}
 Group   2 Type H   : 5s1p contracted to 3s1p pattern {311/1}
 Group   3 Type C   : 11s6p2d1f contracted to 5s3p2d1f pattern {62111/411/11/1}

Atom   0O    basis set group =>   1
Atom   1H    basis set group =>   2
Atom   2C    basis set group =>   3
Atom   3H    basis set group =>   2
Atom   4H    basis set group =>   2
Atom   5H    basis set group =>   2
Atom   6O    basis set group =>   1
Atom   7H    basis set group =>   2
Atom   8C    basis set group =>   3
Atom   9H    basis set group =>   2
Atom  10H    basis set group =>   2
Atom  11H    basis set group =>   2
Atom  12O    basis set group =>   1
Atom  13H    basis set group =>   2
Atom  14C    basis set group =>   3
Atom  15H    basis set group =>   2
Atom  16H    basis set group =>   2
Atom  17H    basis set group =>   2
Atom  18O    basis set group =>   1
Atom  19H    basis set group =>   2
Atom  20C    basis set group =>   3
Atom  21H    basis set group =>   2
Atom  22H    basis set group =>   2
Atom  23H    basis set group =>   2
Atom  24O    basis set group =>   1
Atom  25H    basis set group =>   2
Atom  26C    basis set group =>   3
Atom  27H    basis set group =>   2
Atom  28H    basis set group =>   2
Atom  29H    basis set group =>   2
Atom  30O    basis set group =>   1
Atom  31H    basis set group =>   2
Atom  32C    basis set group =>   3
Atom  33H    basis set group =>   2
Atom  34H    basis set group =>   2
Atom  35H    basis set group =>   2

Checking for AutoStart:
The File: orcacalc.gbw exists
Trying to determine its content:
     ... Fine, the file contains calculation information
     ... Fine, the calculation information was read
     ... Fine, the file contains a basis set
     ... Fine, the basis set was read
     ... Fine, the file contains a geometry
     ... Fine, the geometry was read
     ... Fine, the file contains a set of orbitals
     ... Fine, the orbitals can be read
     => possible old guess file was deleted
     => GBW file was renamed to GES file
     => GES file is set as startup file
     => Guess is set to MORead
     ... now leaving AutoStart



           ************************************************************
           *        Program running with 24 parallel MPI-processes    *
           *              working on a common directory               *
           ************************************************************
------------------------------------------------------------------------------
                           ORCA GTO INTEGRAL CALCULATION
------------------------------------------------------------------------------

                         BASIS SET STATISTICS AND STARTUP INFO

 # of primitive gaussian shells          ...  384
 # of primitive gaussian functions       ...  744
 # of contracted shells                  ...  228
 # of contracted basis functions         ...  516
 Highest angular momentum                ...    3
 Maximum contraction depth               ...    6
 Integral package used                   ... LIBINT
 Integral threshhold            Thresh   ...  2.500e-11
 Primitive cut-off              TCut     ...  2.500e-12


------------------------------ INTEGRAL EVALUATION ----------------------------


 * One electron integrals 
 Pre-screening matrix                    ... done
 Shell pair data                         ... done (   0.005 sec)



           ************************************************************
           *        Program running with 24 parallel MPI-processes    *
           *              working on a common directory               *
           ************************************************************
-------------------------------------------------------------------------------
                                 ORCA SCF
-------------------------------------------------------------------------------

------------
SCF SETTINGS
------------
Hamiltonian:
 Ab initio Hamiltonian  Method          .... Hartree-Fock(GTOs)


General Settings:
 Integral files         IntName         .... orcacalc
 Hartree-Fock type      HFTyp           .... RHF
 Total Charge           Charge          ....    0
 Multiplicity           Mult            ....    1
 Number of Electrons    NEL             ....  108
 Basis Dimension        Dim             ....  516
 Nuclear Repulsion      ENuc            ....    848.3617877406 Eh

Convergence Acceleration:
 DIIS                   CNVDIIS         .... on
   Start iteration      DIISMaxIt       ....    12
   Startup error        DIISStart       ....  0.200000
   # of expansion vecs  DIISMaxEq       ....     5
   Bias factor          DIISBfac        ....   1.050
   Max. coefficient     DIISMaxC        ....  10.000
 Newton-Raphson         CNVNR           .... off
 SOSCF                  CNVSOSCF        .... on
   Start iteration      SOSCFMaxIt      ....   150
   Startup grad/error   SOSCFStart      ....  0.003300
 Level Shifting         CNVShift        .... on
   Level shift para.    LevelShift      ....    0.2500
   Turn off err/grad.   ShiftErr        ....    0.0010
 Zerner damping         CNVZerner       .... off
 Static damping         CNVDamp         .... on
   Fraction old density DampFac         ....    0.7000
   Max. Damping (<1)    DampMax         ....    0.9800
   Min. Damping (>=0)   DampMin         ....    0.0000
   Turn off err/grad.   DampErr         ....    0.1000
 Fernandez-Rico         CNVRico         .... off

SCF Procedure:
 Maximum # iterations   MaxIter         ....   125
 SCF integral mode      SCFMode         .... Direct
   Integral package                     .... LIBINT
 Reset frequency        DirectResetFreq ....    20
 Integral Threshold     Thresh          ....  2.500e-11 Eh
 Primitive CutOff       TCut            ....  2.500e-12 Eh

Convergence Tolerance:
 Convergence Check Mode ConvCheckMode   .... Total+1el-Energy
 Convergence forced     ConvForced      .... 1
 Energy Change          TolE            ....  1.000e-08 Eh
 1-El. energy change                    ....  1.000e-05 Eh
 Orbital Gradient       TolG            ....  1.000e-05
 Orbital Rotation angle TolX            ....  1.000e-05
 DIIS Error             TolErr          ....  5.000e-07


Diagonalization of the overlap matrix:
Smallest eigenvalue                        ... 1.014e-03
Time for diagonalization                   ...    0.039 sec
Threshold for overlap eigenvalues          ... 1.000e-08
Number of eigenvalues below threshold      ... 0
Time for construction of square roots      ...    0.053 sec
Total time needed                          ...    0.093 sec

---------------------
INITIAL GUESS: MOREAD
---------------------
Guess MOs are being read from file: orcacalc.ges
Input geometry compatible with but different from current geometry
Input basis set matches current basis set (good)
MOs were renormalized
MOs were reorthogonalized (Cholesky)
                      ------------------
                      INITIAL GUESS DONE (   0.1 sec)
                      ------------------
--------------
SCF ITERATIONS
--------------
ITER       Energy         Delta-E        Max-DP      RMS-DP      [F,P]     Damp
               ***  Starting incremental Fock matrix formation  ***
  0   -690.5331637675   0.000000000000 0.00319628  0.00003346  0.0192001 0.7000
                      *** Initiating the SOSCF procedure ***
                      *** Re-Reading the Fockian *** 
                      *** Removing any level shift *** 
ITER      Energy       Delta-E        Grad      Rot      Max-DP    RMS-DP
  1   -690.53407818  -0.0009144157  0.000507  0.000507  0.007746  0.000096
               *** Restarting incremental Fock matrix formation ***
  2   -690.53655179  -0.0024736080  0.000649  0.000825  0.002223  0.000034
  3   -690.53674080  -0.0001890104  0.000287  0.000559  0.001458  0.000020
  4   -690.53677634  -0.0000355383  0.000108  0.000048  0.000164  0.000004
  5   -690.53677825  -0.0000019122  0.000020  0.000029  0.000079  0.000002
  6   -690.53677845  -0.0000001986  0.000008  0.000010  0.000024  0.000000
                  ***Gradient check signals convergence***
              ***Rediagonalizing the Fockian in SOSCF/NRSCF***

               *****************************************************
               *                     SUCCESS                       *
               *           SCF CONVERGED AFTER   7 CYCLES          *
               *****************************************************


----------------
TOTAL SCF ENERGY
----------------

Total Energy       :         -690.53677847 Eh          -18790.46103 eV

Components:
Nuclear Repulsion  :          848.36178774 Eh           23085.09787 eV
Electronic Energy  :        -1538.89856621 Eh          -41875.55890 eV
One Electron Energy:        -2634.88608706 Eh          -71698.89553 eV
Two Electron Energy:         1095.98752085 Eh           29823.33663 eV

Virial components:
Potential Energy   :        -1380.70812094 Eh          -37570.97804 eV
Kinetic Energy     :          690.17134248 Eh           18780.51701 eV
Virial Ratio       :            2.00052949


---------------
SCF CONVERGENCE
---------------

  Last Energy change         ...   -1.8488e-08  Tolerance :   1.0000e-08
  Last MAX-Density change    ...    7.0619e-06  Tolerance :   1.0000e-07
  Last RMS-Density change    ...    1.3580e-07  Tolerance :   5.0000e-09
  Last Orbital Gradient      ...    1.9251e-06  Tolerance :   1.0000e-05
  Last Orbital Rotation      ...    2.9753e-06  Tolerance :   1.0000e-05

             **** THE GBW FILE WAS UPDATED (orcacalc.gbw) ****
             **** DENSITY FILE WAS UPDATED (orcacalc.scfp) ****
             **** ENERGY FILE WAS UPDATED (orcacalc.en.tmp) ****
             **** THE GBW FILE WAS UPDATED (orcacalc.gbw) ****
             **** DENSITY FILE WAS UPDATED (orcacalc.scfp) ****
----------------
ORBITAL ENERGIES
----------------

  NO   OCC          E(Eh)            E(eV) 
   0   2.0000     -20.559301      -559.4470 
   1   2.0000     -20.553028      -559.2763 
   2   2.0000     -20.541896      -558.9734 
   3   2.0000     -20.540495      -558.9353 
   4   2.0000     -20.539601      -558.9110 
   5   2.0000     -20.519451      -558.3626 
   6   2.0000     -11.273964      -306.7801 
   7   2.0000     -11.272419      -306.7381 
   8   2.0000     -11.268198      -306.6232 
   9   2.0000     -11.258568      -306.3612 
  10   2.0000     -11.253138      -306.2134 
  11   2.0000     -11.243041      -305.9387 
  12   2.0000      -1.372321       -37.3427 
  13   2.0000      -1.365616       -37.1603 
  14   2.0000      -1.358616       -36.9698 
  15   2.0000      -1.347081       -36.6559 
  16   2.0000      -1.339550       -36.4510 
  17   2.0000      -1.321599       -35.9625 
  18   2.0000      -0.940769       -25.5996 
  19   2.0000      -0.929687       -25.2981 
  20   2.0000      -0.925099       -25.1732 
  21   2.0000      -0.919929       -25.0325 
  22   2.0000      -0.914787       -24.8926 
  23   2.0000      -0.900296       -24.4983 
  24   2.0000      -0.726746       -19.7758 
  25   2.0000      -0.717455       -19.5230 
  26   2.0000      -0.698934       -19.0190 
  27   2.0000      -0.689325       -18.7575 
  28   2.0000      -0.668478       -18.1902 
  29   2.0000      -0.664148       -18.0724 
  30   2.0000      -0.627154       -17.0657 
  31   2.0000      -0.619588       -16.8598 
  32   2.0000      -0.615883       -16.7590 
  33   2.0000      -0.612842       -16.6763 
  34   2.0000      -0.608954       -16.5705 
  35   2.0000      -0.608069       -16.5464 
  36   2.0000      -0.600605       -16.3433 
  37   2.0000      -0.594454       -16.1759 
  38   2.0000      -0.590498       -16.0683 
  39   2.0000      -0.579876       -15.7792 
  40   2.0000      -0.577053       -15.7024 
  41   2.0000      -0.564273       -15.3546 
  42   2.0000      -0.524755       -14.2793 
  43   2.0000      -0.514343       -13.9960 
  44   2.0000      -0.502492       -13.6735 
  45   2.0000      -0.490419       -13.3450 
  46   2.0000      -0.487545       -13.2668 
  47   2.0000      -0.467791       -12.7292 
  48   2.0000      -0.455924       -12.4063 
  49   2.0000      -0.452533       -12.3140 
  50   2.0000      -0.443622       -12.0716 
  51   2.0000      -0.442443       -12.0395 
  52   2.0000      -0.436270       -11.8715 
  53   2.0000      -0.414576       -11.2812 
  54   0.0000       0.130380         3.5478 
  55   0.0000       0.146963         3.9991 
  56   0.0000       0.150966         4.1080 
  57   0.0000       0.164834         4.4854 
  58   0.0000       0.181505         4.9390 
  59   0.0000       0.184412         5.0181 
  60   0.0000       0.191295         5.2054 
  61   0.0000       0.198597         5.4041 
  62   0.0000       0.207683         5.6513 
  63   0.0000       0.215560         5.8657 
  64   0.0000       0.217684         5.9235 
  65   0.0000       0.218003         5.9322 
  66   0.0000       0.227320         6.1857 
  67   0.0000       0.232901         6.3376 
  68   0.0000       0.238421         6.4878 
  69   0.0000       0.241183         6.5629 
  70   0.0000       0.247258         6.7282 
  71   0.0000       0.251992         6.8571 
  72   0.0000       0.254107         6.9146 
  73   0.0000       0.262859         7.1527 
  74   0.0000       0.265999         7.2382 
  75   0.0000       0.272748         7.4219 
  76   0.0000       0.275694         7.5020 
  77   0.0000       0.291717         7.9380 
  78   0.0000       0.302265         8.2250 
  79   0.0000       0.305905         8.3241 
  80   0.0000       0.317255         8.6329 
  81   0.0000       0.332586         9.0501 
  82   0.0000       0.341023         9.2797 
  83   0.0000       0.343620         9.3504 
  84   0.0000       0.356653         9.7050 
  85   0.0000       0.366478         9.9724 
  86   0.0000       0.372260        10.1297 
  87   0.0000       0.376148        10.2355 
  88   0.0000       0.384369        10.4592 
  89   0.0000       0.395917        10.7735 
  90   0.0000       0.401590        10.9278 
  91   0.0000       0.429052        11.6751 
  92   0.0000       0.439152        11.9499 
  93   0.0000       0.444590        12.0979 
  94   0.0000       0.456544        12.4232 
  95   0.0000       0.471377        12.8268 
  96   0.0000       0.481951        13.1145 
  97   0.0000       0.488057        13.2807 
  98   0.0000       0.501857        13.6562 
  99   0.0000       0.514165        13.9911 
 100   0.0000       0.524664        14.2768 
 101   0.0000       0.527629        14.3575 
 102   0.0000       0.541837        14.7441 
 103   0.0000       0.554033        15.0760 
 104   0.0000       0.562946        15.3185 
 105   0.0000       0.570026        15.5112 
 106   0.0000       0.579172        15.7601 
 107   0.0000       0.590131        16.0583 
 108   0.0000       0.594476        16.1765 
 109   0.0000       0.601916        16.3790 
 110   0.0000       0.606679        16.5086 
 111   0.0000       0.608781        16.5658 
 112   0.0000       0.622233        16.9318 
 113   0.0000       0.631064        17.1721 
 114   0.0000       0.634696        17.2710 
 115   0.0000       0.650651        17.7051 
 116   0.0000       0.653506        17.7828 
 117   0.0000       0.653905        17.7936 
 118   0.0000       0.657863        17.9014 
 119   0.0000       0.665369        18.1056 
 120   0.0000       0.672560        18.3013 
 121   0.0000       0.676309        18.4033 
 122   0.0000       0.678885        18.4734 
 123   0.0000       0.682867        18.5818 
 124   0.0000       0.691978        18.8297 
 125   0.0000       0.692557        18.8454 
 126   0.0000       0.701806        19.0971 
 127   0.0000       0.704889        19.1810 
 128   0.0000       0.709856        19.3162 
 129   0.0000       0.715816        19.4784 
 130   0.0000       0.722170        19.6512 
 131   0.0000       0.733885        19.9700 
 132   0.0000       0.737150        20.0589 
 133   0.0000       0.741277        20.1712 
 134   0.0000       0.759482        20.6666 
 135   0.0000       0.766516        20.8580 
 136   0.0000       0.780302        21.2331 
 137   0.0000       0.782403        21.2903 
 138   0.0000       0.810964        22.0675 
 139   0.0000       0.821449        22.3528 
 140   0.0000       0.830089        22.5879 
 141   0.0000       0.837816        22.7981 
 142   0.0000       0.846123        23.0242 
 143   0.0000       0.861092        23.4315 
 144   0.0000       0.867638        23.6096 
 145   0.0000       0.881127        23.9767 
 146   0.0000       0.884659        24.0728 
 147   0.0000       0.898268        24.4431 
 148   0.0000       0.918980        25.0067 
 149   0.0000       0.925996        25.1976 
 150   0.0000       0.927165        25.2294 
 151   0.0000       0.934453        25.4278 
 152   0.0000       0.943516        25.6744 
 153   0.0000       0.957328        26.0502 
 154   0.0000       0.965479        26.2720 
 155   0.0000       0.984416        26.7873 
 156   0.0000       0.993806        27.0428 
 157   0.0000       1.003001        27.2930 
 158   0.0000       1.010412        27.4947 
 159   0.0000       1.016135        27.6504 
 160   0.0000       1.039313        28.2811 
 161   0.0000       1.048332        28.5266 
 162   0.0000       1.067205        29.0401 
 163   0.0000       1.070268        29.1235 
 164   0.0000       1.084409        29.5083 
 165   0.0000       1.093728        29.7619 
 166   0.0000       1.107793        30.1446 
 167   0.0000       1.132262        30.8104 
 168   0.0000       1.143793        31.1242 
 169   0.0000       1.144930        31.1551 
 170   0.0000       1.154440        31.4139 
 171   0.0000       1.168461        31.7954 
 172   0.0000       1.187104        32.3027 
 173   0.0000       1.189449        32.3665 
 174   0.0000       1.201325        32.6897 
 175   0.0000       1.212601        32.9966 
 176   0.0000       1.220939        33.2234 
 177   0.0000       1.233679        33.5701 
 178   0.0000       1.243645        33.8413 
 179   0.0000       1.256768        34.1984 
 180   0.0000       1.284433        34.9512 
 181   0.0000       1.292687        35.1758 
 182   0.0000       1.297168        35.2977 
 183   0.0000       1.303464        35.4691 
 184   0.0000       1.320582        35.9349 
 185   0.0000       1.365341        37.1528 
 186   0.0000       1.558934        42.4208 
 187   0.0000       1.573182        42.8084 
 188   0.0000       1.590849        43.2892 
 189   0.0000       1.600355        43.5479 
 190   0.0000       1.610965        43.8366 
 191   0.0000       1.639508        44.6133 
 192   0.0000       1.659463        45.1563 
 193   0.0000       1.668924        45.4137 
 194   0.0000       1.692850        46.0648 
 195   0.0000       1.702351        46.3233 
 196   0.0000       1.710195        46.5368 
 197   0.0000       1.716720        46.7143 
 198   0.0000       1.732858        47.1535 
 199   0.0000       1.734586        47.2005 
 200   0.0000       1.742161        47.4066 
 201   0.0000       1.751549        47.6621 
 202   0.0000       1.754651        47.7465 
 203   0.0000       1.767330        48.0915 
 204   0.0000       1.783185        48.5229 
 205   0.0000       1.783738        48.5380 
 206   0.0000       1.786006        48.5997 
 207   0.0000       1.795865        48.8680 
 208   0.0000       1.805357        49.1263 
 209   0.0000       1.809954        49.2513 
 210   0.0000       1.816928        49.4411 
 211   0.0000       1.820556        49.5399 
 212   0.0000       1.822321        49.5879 
 213   0.0000       1.829071        49.7715 
 214   0.0000       1.840554        50.0840 
 215   0.0000       1.842862        50.1468 
 216   0.0000       1.848360        50.2964 
 217   0.0000       1.854168        50.4545 
 218   0.0000       1.859486        50.5992 
 219   0.0000       1.864347        50.7315 
 220   0.0000       1.871392        50.9232 
 221   0.0000       1.876118        51.0518 
 222   0.0000       1.883553        51.2541 
 223   0.0000       1.896171        51.5974 
 224   0.0000       1.898763        51.6680 
 225   0.0000       1.903069        51.7851 
 226   0.0000       1.908012        51.9196 
 227   0.0000       1.919857        52.2420 
 228   0.0000       1.930041        52.5191 
 229   0.0000       1.937780        52.7297 
 230   0.0000       1.949246        53.0417 
 231   0.0000       1.970176        53.6112 
 232   0.0000       1.999715        54.4150 
 233   0.0000       2.028209        55.1904 
 234   0.0000       2.054015        55.8926 
 235   0.0000       2.065942        56.2171 
 236   0.0000       2.085765        56.7565 
 237   0.0000       2.110241        57.4226 
 238   0.0000       2.156779        58.6890 
 239   0.0000       2.168822        59.0166 
 240   0.0000       2.178009        59.2666 
 241   0.0000       2.195704        59.7481 
 242   0.0000       2.202400        59.9303 
 243   0.0000       2.204574        59.9895 
 244   0.0000       2.213315        60.2274 
 245   0.0000       2.234251        60.7971 
 246   0.0000       2.242806        61.0299 
 247   0.0000       2.253585        61.3232 
 248   0.0000       2.257452        61.4284 
 249   0.0000       2.270244        61.7765 
 250   0.0000       2.277935        61.9858 
 251   0.0000       2.282617        62.1132 
 252   0.0000       2.286080        62.2074 
 253   0.0000       2.296999        62.5045 
 254   0.0000       2.300067        62.5880 
 255   0.0000       2.309016        62.8315 
 256   0.0000       2.312629        62.9298 
 257   0.0000       2.317089        63.0512 
 258   0.0000       2.323349        63.2215 
 259   0.0000       2.338869        63.6439 
 260   0.0000       2.348024        63.8930 
 261   0.0000       2.358902        64.1890 
 262   0.0000       2.372441        64.5574 
 263   0.0000       2.379623        64.7528 
 264   0.0000       2.385824        64.9216 
 265   0.0000       2.395323        65.1801 
 266   0.0000       2.401256        65.3415 
 267   0.0000       2.410546        65.5943 
 268   0.0000       2.425551        66.0026 
 269   0.0000       2.461106        66.9701 
 270   0.0000       2.471853        67.2625 
 271   0.0000       2.490438        67.7682 
 272   0.0000       2.511172        68.3325 
 273   0.0000       2.528076        68.7925 
 274   0.0000       2.532608        68.9158 
 275   0.0000       2.548796        69.3563 
 276   0.0000       2.553405        69.4817 
 277   0.0000       2.570759        69.9539 
 278   0.0000       2.589645        70.4678 
 279   0.0000       2.592616        70.5487 
 280   0.0000       2.598615        70.7119 
 281   0.0000       2.599589        70.7384 
 282   0.0000       2.613683        71.1219 
 283   0.0000       2.621094        71.3236 
 284   0.0000       2.632654        71.6382 
 285   0.0000       2.641896        71.8896 
 286   0.0000       2.658670        72.3461 
 287   0.0000       2.668800        72.6218 
 288   0.0000       2.670585        72.6703 
 289   0.0000       2.684203        73.0409 
 290   0.0000       2.686846        73.1128 
 291   0.0000       2.692052        73.2545 
 292   0.0000       2.711149        73.7741 
 293   0.0000       2.718614        73.9773 
 294   0.0000       2.720279        74.0226 
 295   0.0000       2.727985        74.2322 
 296   0.0000       2.743120        74.6441 
 297   0.0000       2.761084        75.1329 
 298   0.0000       2.766205        75.2723 
 299   0.0000       2.768888        75.3453 
 300   0.0000       2.788525        75.8796 
 301   0.0000       2.799235        76.1711 
 302   0.0000       2.802586        76.2622 
 303   0.0000       2.813474        76.5585 
 304   0.0000       2.821897        76.7877 
 305   0.0000       2.824745        76.8652 
 306   0.0000       2.838700        77.2449 
 307   0.0000       2.848497        77.5115 
 308   0.0000       2.855403        77.6995 
 309   0.0000       2.862316        77.8876 
 310   0.0000       2.869895        78.0938 
 311   0.0000       2.880064        78.3705 
 312   0.0000       2.886399        78.5429 
 313   0.0000       2.896788        78.8256 
 314   0.0000       2.904178        79.0267 
 315   0.0000       2.907409        79.1146 
 316   0.0000       2.915260        79.3283 
 317   0.0000       2.932697        79.8027 
 318   0.0000       2.940032        80.0023 
 319   0.0000       2.946471        80.1775 
 320   0.0000       2.981354        81.1268 
 321   0.0000       3.004917        81.7679 
 322   0.0000       3.014488        82.0284 
 323   0.0000       3.018712        82.1433 
 324   0.0000       3.051017        83.0224 
 325   0.0000       3.084091        83.9224 
 326   0.0000       3.104568        84.4796 
 327   0.0000       3.119443        84.8844 
 328   0.0000       3.132676        85.2445 
 329   0.0000       3.141805        85.4929 
 330   0.0000       3.157392        85.9170 
 331   0.0000       3.165774        86.1451 
 332   0.0000       3.189614        86.7938 
 333   0.0000       3.193217        86.8918 
 334   0.0000       3.198569        87.0375 
 335   0.0000       3.210278        87.3561 
 336   0.0000       3.224775        87.7506 
 337   0.0000       3.234024        88.0023 
 338   0.0000       3.253503        88.5323 
 339   0.0000       3.276324        89.1533 
 340   0.0000       3.283384        89.3454 
 341   0.0000       3.314929        90.2038 
 342   0.0000       3.320723        90.3615 
 343   0.0000       3.344047        90.9961 
 344   0.0000       3.362087        91.4871 
 345   0.0000       3.368971        91.6744 
 346   0.0000       3.388972        92.2186 
 347   0.0000       3.403136        92.6040 
 348   0.0000       3.407983        92.7359 
 349   0.0000       3.434920        93.4689 
 350   0.0000       3.445309        93.7516 
 351   0.0000       3.449028        93.8528 
 352   0.0000       3.463272        94.2404 
 353   0.0000       3.471311        94.4592 
 354   0.0000       3.476427        94.5984 
 355   0.0000       3.483221        94.7833 
 356   0.0000       3.505408        95.3870 
 357   0.0000       3.519822        95.7792 
 358   0.0000       3.529636        96.0463 
 359   0.0000       3.541178        96.3603 
 360   0.0000       3.552030        96.6556 
 361   0.0000       3.558789        96.8396 
 362   0.0000       3.571833        97.1945 
 363   0.0000       3.582127        97.4746 
 364   0.0000       3.592520        97.7574 
 365   0.0000       3.604431        98.0816 
 366   0.0000       3.612827        98.3100 
 367   0.0000       3.619855        98.5013 
 368   0.0000       3.655541        99.4723 
 369   0.0000       3.679941       100.1363 
 370   0.0000       3.685351       100.2835 
 371   0.0000       3.688352       100.3652 
 372   0.0000       3.713617       101.0527 
 373   0.0000       3.726241       101.3962 
 374   0.0000       3.732818       101.5751 
 375   0.0000       3.741588       101.8138 
 376   0.0000       3.750103       102.0455 
 377   0.0000       3.764417       102.4350 
 378   0.0000       3.783855       102.9639 
 379   0.0000       3.786239       103.0288 
 380   0.0000       3.799903       103.4006 
 381   0.0000       3.815401       103.8223 
 382   0.0000       3.822529       104.0163 
 383   0.0000       3.831279       104.2544 
 384   0.0000       3.840233       104.4980 
 385   0.0000       3.869562       105.2961 
 386   0.0000       3.881132       105.6110 
 387   0.0000       3.890882       105.8763 
 388   0.0000       3.902083       106.1811 
 389   0.0000       3.903890       106.2302 
 390   0.0000       3.911473       106.4366 
 391   0.0000       3.914406       106.5164 
 392   0.0000       3.917676       106.6054 
 393   0.0000       3.930341       106.9500 
 394   0.0000       3.931817       106.9902 
 395   0.0000       3.941357       107.2498 
 396   0.0000       3.948732       107.4505 
 397   0.0000       3.952957       107.5654 
 398   0.0000       3.960029       107.7579 
 399   0.0000       3.968725       107.9945 
 400   0.0000       3.981292       108.3365 
 401   0.0000       4.037194       109.8576 
 402   0.0000       4.294102       116.8484 
 403   0.0000       4.304658       117.1357 
 404   0.0000       4.325007       117.6894 
 405   0.0000       4.376450       119.0892 
 406   0.0000       4.392289       119.5203 
 407   0.0000       4.443045       120.9014 
 408   0.0000       4.463734       121.4644 
 409   0.0000       4.484082       122.0181 
 410   0.0000       4.501398       122.4893 
 411   0.0000       4.548512       123.7713 
 412   0.0000       4.571299       124.3914 
 413   0.0000       4.610359       125.4543 
 414   0.0000       4.615104       125.5834 
 415   0.0000       4.636773       126.1730 
 416   0.0000       4.639789       126.2551 
 417   0.0000       4.644525       126.3840 
 418   0.0000       4.660474       126.8180 
 419   0.0000       4.680323       127.3581 
 420   0.0000       4.715662       128.3197 
 421   0.0000       4.754220       129.3689 
 422   0.0000       4.763806       129.6298 
 423   0.0000       4.782540       130.1395 
 424   0.0000       4.793769       130.4451 
 425   0.0000       4.836910       131.6190 
 426   0.0000       4.922571       133.9500 
 427   0.0000       4.947711       134.6341 
 428   0.0000       4.951300       134.7317 
 429   0.0000       4.958286       134.9218 
 430   0.0000       4.961394       135.0064 
 431   0.0000       4.981157       135.5442 
 432   0.0000       5.685478       154.7097 
 433   0.0000       5.702253       155.1662 
 434   0.0000       5.704426       155.2253 
 435   0.0000       5.713455       155.4710 
 436   0.0000       5.739265       156.1733 
 437   0.0000       5.748106       156.4139 
 438   0.0000       5.754551       156.5893 
 439   0.0000       5.774700       157.1376 
 440   0.0000       5.784852       157.4138 
 441   0.0000       5.797710       157.7637 
 442   0.0000       5.822625       158.4417 
 443   0.0000       5.833037       158.7250 
 444   0.0000       5.923408       161.1841 
 445   0.0000       5.934100       161.4751 
 446   0.0000       5.935149       161.5036 
 447   0.0000       5.940698       161.6546 
 448   0.0000       5.989555       162.9841 
 449   0.0000       5.997985       163.2135 
 450   0.0000       6.108739       166.2272 
 451   0.0000       6.120267       166.5409 
 452   0.0000       6.171653       167.9392 
 453   0.0000       6.179116       168.1423 
 454   0.0000       6.187896       168.3812 
 455   0.0000       6.205584       168.8625 
 456   0.0000       6.237678       169.7358 
 457   0.0000       6.239456       169.7842 
 458   0.0000       6.251746       170.1187 
 459   0.0000       6.256885       170.2585 
 460   0.0000       6.263236       170.4313 
 461   0.0000       6.274734       170.7442 
 462   0.0000       6.318776       171.9426 
 463   0.0000       6.327779       172.1876 
 464   0.0000       6.345966       172.6825 
 465   0.0000       6.380786       173.6300 
 466   0.0000       6.408016       174.3710 
 467   0.0000       6.413558       174.5218 
 468   0.0000       6.702262       182.3778 
 469   0.0000       6.748334       183.6315 
 470   0.0000       6.782775       184.5687 
 471   0.0000       6.791607       184.8090 
 472   0.0000       6.847070       186.3182 
 473   0.0000       6.869794       186.9366 
 474   0.0000       6.987468       190.1387 
 475   0.0000       7.008844       190.7203 
 476   0.0000       7.038624       191.5307 
 477   0.0000       7.096277       193.0995 
 478   0.0000       7.109860       193.4691 
 479   0.0000       7.130717       194.0367 
 480   0.0000       7.179272       195.3579 
 481   0.0000       7.191235       195.6835 
 482   0.0000       7.199750       195.9152 
 483   0.0000       7.204921       196.0559 
 484   0.0000       7.213484       196.2889 
 485   0.0000       7.240797       197.0321 
 486   0.0000       7.257663       197.4910 
 487   0.0000       7.268530       197.7868 
 488   0.0000       7.271782       197.8752 
 489   0.0000       7.283052       198.1819 
 490   0.0000       7.298827       198.6112 
 491   0.0000       7.312172       198.9743 
 492   0.0000       7.503714       204.1864 
 493   0.0000       7.544888       205.3068 
 494   0.0000       7.549863       205.4422 
 495   0.0000       7.571648       206.0350 
 496   0.0000       7.596762       206.7184 
 497   0.0000       7.611241       207.1124 
 498   0.0000       7.669041       208.6852 
 499   0.0000       7.671143       208.7424 
 500   0.0000       7.706030       209.6917 
 501   0.0000       7.745368       210.7622 
 502   0.0000       7.787072       211.8970 
 503   0.0000       7.811290       212.5560 
 504   0.0000      23.297492       633.9570 
 505   0.0000      23.379390       636.1855 
 506   0.0000      23.412220       637.0789 
 507   0.0000      23.504219       639.5823 
 508   0.0000      23.513871       639.8450 
 509   0.0000      23.562597       641.1709 
 510   0.0000      45.232096      1230.8279 
 511   0.0000      45.253471      1231.4095 
 512   0.0000      45.282984      1232.2127 
 513   0.0000      45.325428      1233.3676 
 514   0.0000      45.331304      1233.5275 
 515   0.0000      45.376557      1234.7589 

                    ********************************
                    * MULLIKEN POPULATION ANALYSIS *
                    ********************************

-----------------------
MULLIKEN ATOMIC CHARGES
-----------------------
   0 O :   -0.565194
   1 H :    0.363470
   2 C :   -0.130488
   3 H :    0.130766
   4 H :    0.107367
   5 H :    0.113135
   6 O :   -0.606912
   7 H :    0.383136
   8 C :   -0.063391
   9 H :    0.088119
  10 H :    0.105696
  11 H :    0.101975
  12 O :   -0.600474
  13 H :    0.390305
  14 C :   -0.071841
  15 H :    0.090495
  16 H :    0.096728
  17 H :    0.086965
  18 O :   -0.594478
  19 H :    0.381573
  20 C :   -0.091467
  21 H :    0.098300
  22 H :    0.102675
  23 H :    0.089362
  24 O :   -0.581903
  25 H :    0.360049
  26 C :   -0.102529
  27 H :    0.101457
  28 H :    0.078381
  29 H :    0.134161
  30 O :   -0.603436
  31 H :    0.391770
  32 C :   -0.083119
  33 H :    0.108173
  34 H :    0.103803
  35 H :    0.087372
Sum of atomic charges:   -0.0000000

--------------------------------
MULLIKEN REDUCED ORBITAL CHARGES
--------------------------------
  0 O s       :     3.788221  s :     3.788221
      pz      :     1.777274  p :     4.745501
      px      :     1.414342
      py      :     1.553885
      dz2     :     0.002459  d :     0.029758
      dxz     :     0.007328
      dyz     :     0.005169
      dx2y2   :     0.011400
      dxy     :     0.003403
      f0      :     0.000319  f :     0.001714
      f+1     :     0.000160
      f-1     :     0.000104
      f+2     :     0.000442
      f-2     :     0.000159
      f+3     :     0.000314
      f-3     :     0.000217
  1 H s       :     0.584753  s :     0.584753
      pz      :     0.015919  p :     0.051778
      px      :     0.013505
      py      :     0.022354
  2 C s       :     3.200436  s :     3.200436
      pz      :     0.993364  p :     2.807495
      px      :     0.737888
      py      :     1.076243
      dz2     :     0.019791  d :     0.114043
      dxz     :     0.030441
      dyz     :     0.018021
      dx2y2   :     0.021249
      dxy     :     0.024542
      f0      :     0.000600  f :     0.008513
      f+1     :     0.001857
      f-1     :     0.000730
      f+2     :     0.001780
      f-2     :     0.000915
      f+3     :     0.001409
      f-3     :     0.001223
  3 H s       :     0.848758  s :     0.848758
      pz      :     0.011640  p :     0.020476
      px      :     0.001951
      py      :     0.006885
  4 H s       :     0.870886  s :     0.870886
      pz      :     0.004608  p :     0.021747
      px      :     0.005011
      py      :     0.012129
  5 H s       :     0.866950  s :     0.866950
      pz      :     0.006227  p :     0.019916
      px      :     0.008555
      py      :     0.005133
  6 O s       :     3.785456  s :     3.785456
      pz      :     1.428876  p :     4.790635
      px      :     1.851396
      py      :     1.510363
      dz2     :     0.012296  d :     0.029039
      dxz     :     0.001805
      dyz     :     0.004258
      dx2y2   :     0.005035
      dxy     :     0.005646
      f0      :     0.000772  f :     0.001783
      f+1     :     0.000113
      f-1     :     0.000087
      f+2     :     0.000156
      f-2     :     0.000192
      f+3     :     0.000283
      f-3     :     0.000179
  7 H s       :     0.555993  s :     0.555993
      pz      :     0.034662  p :     0.060871
      px      :     0.015301
      py      :     0.010909
  8 C s       :     3.193902  s :     3.193902
      pz      :     0.996743  p :     2.746416
      px      :     0.979872
      py      :     0.769801
      dz2     :     0.016634  d :     0.113771
      dxz     :     0.022690
      dyz     :     0.023098
      dx2y2   :     0.016321
      dxy     :     0.035027
      f0      :     0.000325  f :     0.009302
      f+1     :     0.000988
      f-1     :     0.001690
      f+2     :     0.000941
      f-2     :     0.002021
      f+3     :     0.001141
      f-3     :     0.002196
  9 H s       :     0.891184  s :     0.891184
      pz      :     0.008532  p :     0.020697
      px      :     0.006625
      py      :     0.005540
 10 H s       :     0.873123  s :     0.873123
      pz      :     0.010892  p :     0.021180
      px      :     0.006440
      py      :     0.003848
 11 H s       :     0.877321  s :     0.877321
      pz      :     0.003754  p :     0.020704
      px      :     0.009358
      py      :     0.007592
 12 O s       :     3.801350  s :     3.801350
      pz      :     1.774897  p :     4.765663
      px      :     1.601612
      py      :     1.389153
      dz2     :     0.004662  d :     0.031742
      dxz     :     0.004085
      dyz     :     0.005063
      dx2y2   :     0.003579
      dxy     :     0.014353
      f0      :     0.000239  f :     0.001719
      f+1     :     0.000199
      f-1     :     0.000303
      f+2     :     0.000214
      f-2     :     0.000273
      f+3     :     0.000232
      f-3     :     0.000259
 13 H s       :     0.560870  s :     0.560870
      pz      :     0.012141  p :     0.048825
      px      :     0.017695
      py      :     0.018989
 14 C s       :     3.179912  s :     3.179912
      pz      :     0.954579  p :     2.760396
      px      :     0.971501
      py      :     0.834316
      dz2     :     0.015215  d :     0.121982
      dxz     :     0.028870
      dyz     :     0.026378
      dx2y2   :     0.017055
      dxy     :     0.034463
      f0      :     0.000669  f :     0.009552
      f+1     :     0.000673
      f-1     :     0.002163
      f+2     :     0.001237
      f-2     :     0.002488
      f+3     :     0.000847
      f-3     :     0.001474
 15 H s       :     0.889588  s :     0.889588
      pz      :     0.007725  p :     0.019917
      px      :     0.008572
      py      :     0.003621
 16 H s       :     0.881442  s :     0.881442
      pz      :     0.005577  p :     0.021830
      px      :     0.009172
      py      :     0.007081
 17 H s       :     0.892118  s :     0.892118
      pz      :     0.007574  p :     0.020917
      px      :     0.006706
      py      :     0.006637
 18 O s       :     3.789742  s :     3.789742
      pz      :     1.462394  p :     4.772603
      px      :     1.777036
      py      :     1.533173
      dz2     :     0.008413  d :     0.030298
      dxz     :     0.007223
      dyz     :     0.004625
      dx2y2   :     0.007899
      dxy     :     0.002138
      f0      :     0.000260  f :     0.001836
      f+1     :     0.000537
      f-1     :     0.000134
      f+2     :     0.000305
      f-2     :     0.000185
      f+3     :     0.000153
      f-3     :     0.000261
 19 H s       :     0.562147  s :     0.562147
      pz      :     0.012997  p :     0.056280
      px      :     0.015285
      py      :     0.027997
 20 C s       :     3.150987  s :     3.150987
      pz      :     0.776746  p :     2.807129
      px      :     0.948819
      py      :     1.081565
      dz2     :     0.026813  d :     0.123781
      dxz     :     0.020473
      dyz     :     0.042330
      dx2y2   :     0.022290
      dxy     :     0.011875
      f0      :     0.002409  f :     0.009571
      f+1     :     0.002016
      f-1     :     0.001027
      f+2     :     0.001830
      f-2     :     0.001499
      f+3     :     0.000366
      f-3     :     0.000423
 21 H s       :     0.879664  s :     0.879664
      pz      :     0.002755  p :     0.022035
      px      :     0.014036
      py      :     0.005244
 22 H s       :     0.875595  s :     0.875595
      pz      :     0.007818  p :     0.021730
      px      :     0.003904
      py      :     0.010008
 23 H s       :     0.889536  s :     0.889536
      pz      :     0.008330  p :     0.021102
      px      :     0.004563
      py      :     0.008208
 24 O s       :     3.795852  s :     3.795852
      pz      :     1.375493  p :     4.753632
      px      :     1.503825
      py      :     1.874314
      dz2     :     0.011613  d :     0.030656
      dxz     :     0.005834
      dyz     :     0.004473
      dx2y2   :     0.007023
      dxy     :     0.001713
      f0      :     0.000434  f :     0.001763
      f+1     :     0.000146
      f-1     :     0.000374
      f+2     :     0.000254
      f-2     :     0.000103
      f+3     :     0.000341
      f-3     :     0.000111
 25 H s       :     0.594614  s :     0.594614
      pz      :     0.012479  p :     0.045337
      px      :     0.018379
      py      :     0.014479
 26 C s       :     3.203878  s :     3.203878
      pz      :     0.702605  p :     2.775379
      px      :     1.082649
      py      :     0.990126
      dz2     :     0.029102  d :     0.114240
      dxz     :     0.023365
      dyz     :     0.034668
      dx2y2   :     0.010626
      dxy     :     0.016479
      f0      :     0.002503  f :     0.009032
      f+1     :     0.001815
      f-1     :     0.002391
      f+2     :     0.000672
      f-2     :     0.000480
      f+3     :     0.000793
      f-3     :     0.000378
 27 H s       :     0.876844  s :     0.876844
      pz      :     0.006978  p :     0.021699
      px      :     0.004637
      py      :     0.010084
 28 H s       :     0.903534  s :     0.903534
      pz      :     0.001823  p :     0.018084
      px      :     0.006499
      py      :     0.009763
 29 H s       :     0.842177  s :     0.842177
      pz      :     0.003290  p :     0.023662
      px      :     0.015468
      py      :     0.004904
 30 O s       :     3.787476  s :     3.787476
      pz      :     1.859627  p :     4.784457
      px      :     1.568195
      py      :     1.356634
      dz2     :     0.004544  d :     0.029816
      dxz     :     0.004311
      dyz     :     0.002030
      dx2y2   :     0.010880
      dxy     :     0.008051
      f0      :     0.000193  f :     0.001688
      f+1     :     0.000159
      f-1     :     0.000369
      f+2     :     0.000112
      f-2     :     0.000192
      f+3     :     0.000207
      f-3     :     0.000457
 31 H s       :     0.556970  s :     0.556970
      pz      :     0.012994  p :     0.051260
      px      :     0.009788
      py      :     0.028478
 32 C s       :     3.179571  s :     3.179571
      pz      :     1.004951  p :     2.778438
      px      :     0.810309
      py      :     0.963178
      dz2     :     0.008804  d :     0.115902
      dxz     :     0.031575
      dyz     :     0.021774
      dx2y2   :     0.028030
      dxy     :     0.025720
      f0      :     0.000654  f :     0.009208
      f+1     :     0.001714
      f-1     :     0.000680
      f+2     :     0.000682
      f-2     :     0.002452
      f+3     :     0.001782
      f-3     :     0.001244
 33 H s       :     0.869933  s :     0.869933
      pz      :     0.006340  p :     0.021893
      px      :     0.004155
      py      :     0.011398
 34 H s       :     0.874832  s :     0.874832
      pz      :     0.008615  p :     0.021365
      px      :     0.006859
      py      :     0.005891
 35 H s       :     0.891656  s :     0.891656
      pz      :     0.008811  p :     0.020972
      px      :     0.007553
      py      :     0.004607


                     *******************************
                     * LOEWDIN POPULATION ANALYSIS *
                     *******************************

----------------------
LOEWDIN ATOMIC CHARGES
----------------------
   0 O :   -0.100900
   1 H :    0.151230
   2 C :   -0.315579
   3 H :    0.104350
   4 H :    0.089028
   5 H :    0.107007
   6 O :   -0.088770
   7 H :    0.124063
   8 C :   -0.316151
   9 H :    0.087562
  10 H :    0.098248
  11 H :    0.094121
  12 O :   -0.118401
  13 H :    0.184201
  14 C :   -0.353229
  15 H :    0.093071
  16 H :    0.087690
  17 H :    0.082608
  18 O :   -0.074394
  19 H :    0.158024
  20 C :   -0.380390
  21 H :    0.084690
  22 H :    0.103136
  23 H :    0.088376
  24 O :   -0.131134
  25 H :    0.180820
  26 C :   -0.333817
  27 H :    0.080413
  28 H :    0.095569
  29 H :    0.095631
  30 O :   -0.096681
  31 H :    0.177542
  32 C :   -0.329247
  33 H :    0.095664
  34 H :    0.089681
  35 H :    0.085969

-------------------------------
LOEWDIN REDUCED ORBITAL CHARGES
-------------------------------
  0 O s       :     3.365153  s :     3.365153
      pz      :     1.723211  p :     4.668740
      px      :     1.443500
      py      :     1.502029
      dz2     :     0.006689  d :     0.062958
      dxz     :     0.015433
      dyz     :     0.006899
      dx2y2   :     0.020503
      dxy     :     0.013434
      f0      :     0.000412  f :     0.004049
      f+1     :     0.000520
      f-1     :     0.000063
      f+2     :     0.001081
      f-2     :     0.000514
      f+3     :     0.000712
      f-3     :     0.000746
  1 H s       :     0.664258  s :     0.664258
      pz      :     0.057481  p :     0.184513
      px      :     0.041085
      py      :     0.085947
  2 C s       :     2.865996  s :     2.865996
      pz      :     1.049184  p :     3.006587
      px      :     0.849152
      py      :     1.108250
      dz2     :     0.059503  d :     0.393119
      dxz     :     0.109133
      dyz     :     0.052543
      dx2y2   :     0.086142
      dxy     :     0.085798
      f0      :     0.004616  f :     0.049877
      f+1     :     0.010925
      f-1     :     0.002577
      f+2     :     0.008368
      f-2     :     0.004653
      f+3     :     0.010251
      f-3     :     0.008486
  3 H s       :     0.837614  s :     0.837614
      pz      :     0.031518  p :     0.058036
      px      :     0.006815
      py      :     0.019704
  4 H s       :     0.845942  s :     0.845942
      pz      :     0.015668  p :     0.065030
      px      :     0.015247
      py      :     0.034115
  5 H s       :     0.838604  s :     0.838604
      pz      :     0.018062  p :     0.054388
      px      :     0.021303
      py      :     0.015023
  6 O s       :     3.339169  s :     3.339169
      pz      :     1.394954  p :     4.680231
      px      :     1.755253
      py      :     1.530024
      dz2     :     0.023576  d :     0.065188
      dxz     :     0.004860
      dyz     :     0.012128
      dx2y2   :     0.011431
      dxy     :     0.013192
      f0      :     0.001319  f :     0.004182
      f+1     :     0.000133
      f-1     :     0.000608
      f+2     :     0.000435
      f-2     :     0.000490
      f+3     :     0.000607
      f-3     :     0.000591
  7 H s       :     0.664511  s :     0.664511
      pz      :     0.121392  p :     0.211427
      px      :     0.050942
      py      :     0.039093
  8 C s       :     2.859611  s :     2.859611
      pz      :     1.040995  p :     2.982693
      px      :     1.047209
      py      :     0.894489
      dz2     :     0.057906  d :     0.415834
      dxz     :     0.070211
      dyz     :     0.084953
      dx2y2   :     0.073320
      dxy     :     0.129443
      f0      :     0.004278  f :     0.058013
      f+1     :     0.003434
      f-1     :     0.012490
      f+2     :     0.007510
      f-2     :     0.007477
      f+3     :     0.008814
      f-3     :     0.014009
  9 H s       :     0.851859  s :     0.851859
      pz      :     0.024312  p :     0.060579
      px      :     0.020586
      py      :     0.015680
 10 H s       :     0.842142  s :     0.842142
      pz      :     0.028371  p :     0.059609
      px      :     0.018909
      py      :     0.012329
 11 H s       :     0.847350  s :     0.847350
      pz      :     0.012581  p :     0.058528
      px      :     0.025987
      py      :     0.019960
 12 O s       :     3.370996  s :     3.370996
      pz      :     1.702552  p :     4.675721
      px      :     1.585721
      py      :     1.387448
      dz2     :     0.010478  d :     0.067440
      dxz     :     0.007741
      dyz     :     0.013021
      dx2y2   :     0.010008
      dxy     :     0.026192
      f0      :     0.000324  f :     0.004244
      f+1     :     0.000407
      f-1     :     0.000786
      f+2     :     0.000570
      f-2     :     0.000574
      f+3     :     0.000576
      f-3     :     0.001008
 13 H s       :     0.650314  s :     0.650314
      pz      :     0.036448  p :     0.165485
      px      :     0.070299
      py      :     0.058738
 14 C s       :     2.847385  s :     2.847385
      pz      :     1.029791  p :     3.001795
      px      :     1.042406
      py      :     0.929598
      dz2     :     0.053224  d :     0.442481
      dxz     :     0.099434
      dyz     :     0.106298
      dx2y2   :     0.058274
      dxy     :     0.125251
      f0      :     0.006501  f :     0.061568
      f+1     :     0.003934
      f-1     :     0.014992
      f+2     :     0.007075
      f-2     :     0.009999
      f+3     :     0.008022
      f-3     :     0.011045
 15 H s       :     0.850204  s :     0.850204
      pz      :     0.022345  p :     0.056725
      px      :     0.022816
      py      :     0.011564
 16 H s       :     0.849050  s :     0.849050
      pz      :     0.017754  p :     0.063260
      px      :     0.026351
      py      :     0.019156
 17 H s       :     0.856568  s :     0.856568
      pz      :     0.022126  p :     0.060824
      px      :     0.019684
      py      :     0.019013
 18 O s       :     3.331012  s :     3.331012
      pz      :     1.489619  p :     4.668715
      px      :     1.691598
      py      :     1.487497
      dz2     :     0.019134  d :     0.070201
      dxz     :     0.016530
      dyz     :     0.016182
      dx2y2   :     0.012344
      dxy     :     0.006010
      f0      :     0.000931  f :     0.004467
      f+1     :     0.000931
      f-1     :     0.000709
      f+2     :     0.000715
      f-2     :     0.000471
      f+3     :     0.000231
      f-3     :     0.000479
 19 H s       :     0.651656  s :     0.651656
      pz      :     0.039493  p :     0.190320
      px      :     0.046741
      py      :     0.104086
 20 C s       :     2.830344  s :     2.830344
      pz      :     0.904164  p :     3.027136
      px      :     1.021976
      py      :     1.100996
      dz2     :     0.121277  d :     0.459841
      dxz     :     0.096312
      dyz     :     0.132707
      dx2y2   :     0.071723
      dxy     :     0.037822
      f0      :     0.018237  f :     0.063069
      f+1     :     0.013621
      f-1     :     0.007401
      f+2     :     0.008493
      f-2     :     0.009862
      f+3     :     0.002659
      f-3     :     0.002797
 21 H s       :     0.850646  s :     0.850646
      pz      :     0.009979  p :     0.064665
      px      :     0.037023
      py      :     0.017663
 22 H s       :     0.837378  s :     0.837378
      pz      :     0.019529  p :     0.059486
      px      :     0.012178
      py      :     0.027780
 23 H s       :     0.851732  s :     0.851732
      pz      :     0.021709  p :     0.059892
      px      :     0.014498
      py      :     0.023686
 24 O s       :     3.375928  s :     3.375928
      pz      :     1.430407  p :     4.683128
      px      :     1.475259
      py      :     1.777462
      dz2     :     0.023086  d :     0.068037
      dxz     :     0.019048
      dyz     :     0.013462
      dx2y2   :     0.009569
      dxy     :     0.002873
      f0      :     0.001028  f :     0.004041
      f+1     :     0.000923
      f-1     :     0.000865
      f+2     :     0.000448
      f-2     :     0.000213
      f+3     :     0.000474
      f-3     :     0.000090
 25 H s       :     0.661423  s :     0.661423
      pz      :     0.034385  p :     0.157757
      px      :     0.080531
      py      :     0.042841
 26 C s       :     2.861684  s :     2.861684
      pz      :     0.840730  p :     2.999065
      px      :     1.106791
      py      :     1.051545
      dz2     :     0.128111  d :     0.415551
      dxz     :     0.075839
      dyz     :     0.128196
      dx2y2   :     0.031255
      dxy     :     0.052151
      f0      :     0.017067  f :     0.057517
      f+1     :     0.013171
      f-1     :     0.014165
      f+2     :     0.006191
      f-2     :     0.003381
      f+3     :     0.002311
      f-3     :     0.001232
 27 H s       :     0.854382  s :     0.854382
      pz      :     0.019789  p :     0.065205
      px      :     0.016653
      py      :     0.028763
 28 H s       :     0.855013  s :     0.855013
      pz      :     0.006232  p :     0.049417
      px      :     0.017984
      py      :     0.025201
 29 H s       :     0.835410  s :     0.835410
      pz      :     0.010349  p :     0.068959
      px      :     0.042730
      py      :     0.015880
 30 O s       :     3.358925  s :     3.358925
      pz      :     1.743876  p :     4.668149
      px      :     1.589759
      py      :     1.334515
      dz2     :     0.009096  d :     0.065627
      dxz     :     0.010132
      dyz     :     0.005873
      dx2y2   :     0.024895
      dxy     :     0.015631
      f0      :     0.000338  f :     0.003980
      f+1     :     0.000401
      f-1     :     0.000543
      f+2     :     0.000349
      f-2     :     0.000559
      f+3     :     0.000945
      f-3     :     0.000846
 31 H s       :     0.644670  s :     0.644670
      pz      :     0.042624  p :     0.177788
      px      :     0.034369
      py      :     0.100795
 32 C s       :     2.840377  s :     2.840377
      pz      :     1.059721  p :     3.001718
      px      :     0.931734
      py      :     1.010263
      dz2     :     0.034470  d :     0.428380
      dxz     :     0.124360
      dyz     :     0.076286
      dx2y2   :     0.096416
      dxy     :     0.096848
      f0      :     0.005804  f :     0.058772
      f+1     :     0.009778
      f-1     :     0.005791
      f+2     :     0.003829
      f-2     :     0.010097
      f+3     :     0.012770
      f-3     :     0.010703
 33 H s       :     0.842112  s :     0.842112
      pz      :     0.019078  p :     0.062223
      px      :     0.013517
      py      :     0.029628
 34 H s       :     0.846934  s :     0.846934
      pz      :     0.025170  p :     0.063385
      px      :     0.019749
      py      :     0.018467
 35 H s       :     0.853286  s :     0.853286
      pz      :     0.025340  p :     0.060745
      px      :     0.020824
      py      :     0.014581


                      *****************************
                      * MAYER POPULATION ANALYSIS *
                      *****************************

  NA   - Mulliken gross atomic population
  ZA   - Total nuclear charge
  QA   - Mulliken gross atomic charge
  VA   - Mayer's total valence
  BVA  - Mayer's bonded valence
  FA   - Mayer's free valence

  ATOM       NA         ZA         QA         VA         BVA        FA
  0 O      8.5652     8.0000    -0.5652     1.7775     1.7775    -0.0000
  1 H      0.6365     1.0000     0.3635     0.8853     0.8853    -0.0000
  2 C      6.1305     6.0000    -0.1305     3.8619     3.8619     0.0000
  3 H      0.8692     1.0000     0.1308     0.9627     0.9627    -0.0000
  4 H      0.8926     1.0000     0.1074     0.9627     0.9627    -0.0000
  5 H      0.8869     1.0000     0.1131     0.9639     0.9639     0.0000
  6 O      8.6069     8.0000    -0.6069     1.7305     1.7305    -0.0000
  7 H      0.6169     1.0000     0.3831     0.8878     0.8878     0.0000
  8 C      6.0634     6.0000    -0.0634     3.8836     3.8836     0.0000
  9 H      0.9119     1.0000     0.0881     0.9545     0.9545    -0.0000
 10 H      0.8943     1.0000     0.1057     0.9631     0.9631    -0.0000
 11 H      0.8980     1.0000     0.1020     0.9648     0.9648     0.0000
 12 O      8.6005     8.0000    -0.6005     1.7302     1.7302    -0.0000
 13 H      0.6097     1.0000     0.3903     0.8729     0.8729    -0.0000
 14 C      6.0718     6.0000    -0.0718     3.9118     3.9118     0.0000
 15 H      0.9095     1.0000     0.0905     0.9539     0.9539    -0.0000
 16 H      0.9033     1.0000     0.0967     0.9637     0.9637     0.0000
 17 H      0.9130     1.0000     0.0870     0.9624     0.9624    -0.0000
 18 O      8.5945     8.0000    -0.5945     1.7334     1.7334    -0.0000
 19 H      0.6184     1.0000     0.3816     0.8921     0.8921    -0.0000
 20 C      6.0915     6.0000    -0.0915     3.9029     3.9029     0.0000
 21 H      0.9017     1.0000     0.0983     0.9648     0.9648    -0.0000
 22 H      0.8973     1.0000     0.1027     0.9572     0.9572    -0.0000
 23 H      0.9106     1.0000     0.0894     0.9581     0.9581    -0.0000
 24 O      8.5819     8.0000    -0.5819     1.7505     1.7505    -0.0000
 25 H      0.6400     1.0000     0.3600     0.8887     0.8887     0.0000
 26 C      6.1025     6.0000    -0.1025     3.8628     3.8628     0.0000
 27 H      0.8985     1.0000     0.1015     0.9613     0.9613    -0.0000
 28 H      0.9216     1.0000     0.0784     0.9676     0.9676    -0.0000
 29 H      0.8658     1.0000     0.1342     0.9693     0.9693    -0.0000
 30 O      8.6034     8.0000    -0.6034     1.7391     1.7391    -0.0000
 31 H      0.6082     1.0000     0.3918     0.8678     0.8678     0.0000
 32 C      6.0831     6.0000    -0.0831     3.8965     3.8965    -0.0000
 33 H      0.8918     1.0000     0.1082     0.9629     0.9629     0.0000
 34 H      0.8962     1.0000     0.1038     0.9679     0.9679     0.0000
 35 H      0.9126     1.0000     0.0874     0.9495     0.9495    -0.0000

  Mayer bond orders larger than 0.100000
B(  0-O ,  1-H ) :   0.8687 B(  0-O ,  2-C ) :   0.9100 B(  2-C ,  3-H ) :   0.9800 
B(  2-C ,  4-H ) :   0.9893 B(  2-C ,  5-H ) :   0.9850 B(  6-O ,  7-H ) :   0.8274 
B(  6-O ,  8-C ) :   0.9029 B(  8-C ,  9-H ) :   0.9913 B(  8-C , 10-H ) :   0.9887 
B(  8-C , 11-H ) :   0.9905 B( 12-O , 13-H ) :   0.8153 B( 12-O , 14-C ) :   0.9355 
B( 14-C , 15-H ) :   0.9946 B( 14-C , 16-H ) :   0.9862 B( 14-C , 17-H ) :   0.9935 
B( 18-O , 19-H ) :   0.8159 B( 18-O , 20-C ) :   0.9217 B( 20-C , 21-H ) :   1.0001 
B( 20-C , 22-H ) :   0.9858 B( 20-C , 23-H ) :   0.9883 B( 24-O , 25-H ) :   0.8600 
B( 24-O , 26-C ) :   0.9132 B( 26-C , 27-H ) :   0.9824 B( 26-C , 28-H ) :   0.9926 
B( 26-C , 29-H ) :   0.9840 B( 30-O , 31-H ) :   0.8245 B( 30-O , 32-C ) :   0.9140 
B( 32-C , 33-H ) :   0.9934 B( 32-C , 34-H ) :   0.9921 B( 32-C , 35-H ) :   0.9857 


-------
TIMINGS
-------

Total SCF time: 0 days 0 hours 0 min 24 sec 

Total time                  ....      24.428 sec
Sum of individual times     ....      23.409 sec  ( 95.8%)

Fock matrix formation       ....      22.603 sec  ( 92.5%)
Diagonalization             ....       0.122 sec  (  0.5%)
Density matrix formation    ....       0.021 sec  (  0.1%)
Population analysis         ....       0.132 sec  (  0.5%)
Initial guess               ....       0.095 sec  (  0.4%)
Orbital Transformation      ....       0.000 sec  (  0.0%)
Orbital Orthonormalization  ....       0.063 sec  (  0.3%)
DIIS solution               ....       0.036 sec  (  0.1%)
SOSCF solution              ....       0.401 sec  (  1.6%)


           ************************************************************
           *        Program running with 24 parallel MPI-processes    *
           *              working on a common directory               *
           ************************************************************

------------------------------------------------------------------------------
                                ORCA  MP2 
------------------------------------------------------------------------------

Freezing NCore=24 chemical core electrons
MP2 will be done in the AO integral direct mode
The Q1-step will be done using symmetric double matrices
Dimension of the basis                    ...  516
Memory devoted for MP2                    ... 8000 MB   
Memory needed for all in one shot         ... 1051 MB
Number of MOs that can be treated together...   14      
MP2 density construction                  ... relaxed
The MP2 gradient is requested => amplitudes will be stored on disk
Total number of MOs              ...   42
Number of MOs treated per batch  ...    2 
Number of batches necessary      ...    1 
OPERATORS   0/  0 PASS   0
-----------------------------------------------
 MP2 CORRELATION ENERGY   :     -2.526038832 Eh
-----------------------------------------------


[...]
  8 C s       :     2.864518  s :     2.864518
      pz      :     1.049065  p :     3.008058
      px      :     1.057262
      py      :     0.901731
      dz2     :     0.061782  d :     0.426712
      dxz     :     0.071101
      dyz     :     0.085979
      dx2y2   :     0.077095
      dxy     :     0.130755
      f0      :     0.004920  f :     0.061262
      f+1     :     0.004028
      f-1     :     0.012790
      f+2     :     0.007952
      f-2     :     0.008099
      f+3     :     0.009423
      f-3     :     0.014049
  9 H s       :     0.837672  s :     0.837672
      pz      :     0.026178  p :     0.066798
      px      :     0.022686
      py      :     0.017934
 10 H s       :     0.828016  s :     0.828016
      pz      :     0.030419  p :     0.065247
      px      :     0.020847
      py      :     0.013982
 11 H s       :     0.833509  s :     0.833509
      pz      :     0.014440  p :     0.064438
      px      :     0.027784
      py      :     0.022214
 12 O s       :     3.370304  s :     3.370304
      pz      :     1.673092  p :     4.615798
      px      :     1.567026
      py      :     1.375679
      dz2     :     0.016938  d :     0.097321
      dxz     :     0.013648
      dyz     :     0.019144
      dx2y2   :     0.015803
      dxy     :     0.031789
      f0      :     0.000746  f :     0.007337
      f+1     :     0.000816
      f-1     :     0.001230
      f+2     :     0.000993
      f-2     :     0.001033
      f+3     :     0.001046
      f-3     :     0.001473
 13 H s       :     0.654657  s :     0.654657
      pz      :     0.038248  p :     0.169619
      px      :     0.071714
      py      :     0.059657
 14 C s       :     2.852407  s :     2.852407
      pz      :     1.039559  p :     3.026664
      px      :     1.050521
      py      :     0.936584
      dz2     :     0.058472  d :     0.454397
      dxz     :     0.099837
      dyz     :     0.106995
      dx2y2   :     0.061758
      dxy     :     0.127335
      f0      :     0.007167  f :     0.064782
      f+1     :     0.004363
      f-1     :     0.014891
      f+2     :     0.007635
      f-2     :     0.010785
      f+3     :     0.008572
      f-3     :     0.011370
 15 H s       :     0.835673  s :     0.835673
      pz      :     0.024668  p :     0.063016
      px      :     0.024894
      py      :     0.013455
 16 H s       :     0.834750  s :     0.834750
      pz      :     0.019730  p :     0.069132
      px      :     0.028207
      py      :     0.021196
 17 H s       :     0.842810  s :     0.842810
      pz      :     0.024073  p :     0.067330
      px      :     0.021780
      py      :     0.021477
 18 O s       :     3.329925  s :     3.329925
      pz      :     1.471282  p :     4.612744
      px      :     1.669379
      py      :     1.472082
      dz2     :     0.025019  d :     0.100472
      dxz     :     0.022644
      dyz     :     0.022318
      dx2y2   :     0.018384
      dxy     :     0.012107
      f0      :     0.001406  f :     0.007621
      f+1     :     0.001430
      f-1     :     0.001143
      f+2     :     0.001174
      f-2     :     0.000912
      f+3     :     0.000649
      f-3     :     0.000907
 19 H s       :     0.655279  s :     0.655279
      pz      :     0.040502  p :     0.193766
      px      :     0.048094
      py      :     0.105170
 20 C s       :     2.835287  s :     2.835287
      pz      :     0.908705  p :     3.051907
      px      :     1.030665
      py      :     1.112538
      dz2     :     0.124897  d :     0.471874
      dxz     :     0.097636
      dyz     :     0.132859
      dx2y2   :     0.074605
      dxy     :     0.041877
      f0      :     0.018090  f :     0.066234
      f+1     :     0.014580
      f-1     :     0.007826
      f+2     :     0.008981
      f-2     :     0.010201
      f+3     :     0.003210
      f-3     :     0.003348
 21 H s       :     0.837155  s :     0.837155
      pz      :     0.011996  p :     0.071071
      px      :     0.039535
      py      :     0.019541
 22 H s       :     0.822603  s :     0.822603
      pz      :     0.021253  p :     0.065071
      px      :     0.013838
      py      :     0.029980
 23 H s       :     0.836247  s :     0.836247
      pz      :     0.024104  p :     0.066354
      px      :     0.016463
      py      :     0.025786
 24 O s       :     3.376230  s :     3.376230
      pz      :     1.411501  p :     4.626525
      px      :     1.460918
      py      :     1.754106
      dz2     :     0.028854  d :     0.097580
      dxz     :     0.024821
      dyz     :     0.019778
      dx2y2   :     0.015458
      dxy     :     0.008669
      f0      :     0.001545  f :     0.007101
      f+1     :     0.001361
      f-1     :     0.001335
      f+2     :     0.000880
      f-2     :     0.000607
      f+3     :     0.000889
      f-3     :     0.000484
 25 H s       :     0.660317  s :     0.660317
      pz      :     0.035395  p :     0.161675
      px      :     0.081805
      py      :     0.044475
 26 C s       :     2.867169  s :     2.867169
      pz      :     0.849197  p :     3.025109
      px      :     1.113844
      py      :     1.062068
      dz2     :     0.128372  d :     0.427079
      dxz     :     0.079601
      dyz     :     0.130869
      dx2y2   :     0.034663
      dxy     :     0.053573
      f0      :     0.017467  f :     0.060854
      f+1     :     0.013379
      f-1     :     0.014549
      f+2     :     0.006649
      f-2     :     0.003938
      f+3     :     0.002980
      f-3     :     0.001892
 27 H s       :     0.841132  s :     0.841132
      pz      :     0.022319  p :     0.071497
      px      :     0.018561
      py      :     0.030617
 28 H s       :     0.838847  s :     0.838847
      pz      :     0.008230  p :     0.055600
      px      :     0.019993
      py      :     0.027377
 29 H s       :     0.824401  s :     0.824401
      pz      :     0.012441  p :     0.074687
      px      :     0.044454
      py      :     0.017792
 30 O s       :     3.358354  s :     3.358354
      pz      :     1.712334  p :     4.606638
      px      :     1.567539
      py      :     1.326765
      dz2     :     0.015812  d :     0.095994
      dxz     :     0.016409
      dyz     :     0.011926
      dx2y2   :     0.030775
      dxy     :     0.021072
      f0      :     0.000758  f :     0.007083
      f+1     :     0.000821
      f-1     :     0.000985
      f+2     :     0.000754
      f-2     :     0.000994
      f+3     :     0.001403
      f-3     :     0.001368
 31 H s       :     0.647197  s :     0.647197
      pz      :     0.044145  p :     0.181034
      px      :     0.035942
      py      :     0.100948
 32 C s       :     2.845234  s :     2.845234
      pz      :     1.069954  p :     3.026485
      px      :     0.938605
      py      :     1.017926
      dz2     :     0.038366  d :     0.439553
      dxz     :     0.125331
      dyz     :     0.078515
      dx2y2   :     0.100917
      dxy     :     0.096424
      f0      :     0.006353  f :     0.061985
      f+1     :     0.010066
      f-1     :     0.006230
      f+2     :     0.004431
      f-2     :     0.010608
      f+3     :     0.012960
      f-3     :     0.011337
 33 H s       :     0.827563  s :     0.827563
      pz      :     0.020998  p :     0.068130
      px      :     0.015306
      py      :     0.031826
 34 H s       :     0.832432  s :     0.832432
      pz      :     0.027198  p :     0.069593
      px      :     0.022004
      py      :     0.020391
 35 H s       :     0.839504  s :     0.839504
      pz      :     0.027456  p :     0.066994
      px      :     0.023057
      py      :     0.016480


                      *****************************
                      * MAYER POPULATION ANALYSIS *
                      *****************************

  NA   - Mulliken gross atomic population
  ZA   - Total nuclear charge
  QA   - Mulliken gross atomic charge
  VA   - Mayer's total valence
  BVA  - Mayer's bonded valence
  FA   - Mayer's free valence

  ATOM       NA         ZA         QA         VA         BVA        FA
  0 O      8.5038     8.0000    -0.5038     2.1610     1.7617     0.3993
  1 H      0.6522     1.0000     0.3478     0.9028     0.8588     0.0440
  2 C      6.2285     6.0000    -0.2285     3.9890     3.6996     0.2894
  3 H      0.8540     1.0000     0.1460     0.9642     0.9156     0.0486
  4 H      0.8702     1.0000     0.1298     0.9658     0.9190     0.0468
  5 H      0.8668     1.0000     0.1332     0.9637     0.9142     0.0494
  6 O      8.5403     8.0000    -0.5403     2.1206     1.7238     0.3967
  7 H      0.6422     1.0000     0.3578     0.9216     0.8784     0.0432
  8 C      6.1607     6.0000    -0.1607     4.0094     3.7335     0.2759
  9 H      0.8923     1.0000     0.1077     0.9594     0.9109     0.0485
 10 H      0.8738     1.0000     0.1262     0.9650     0.9182     0.0467
 11 H      0.8784     1.0000     0.1216     0.9643     0.9167     0.0476
 12 O      8.5349     8.0000    -0.5349     2.1173     1.7171     0.4002
 13 H      0.6377     1.0000     0.3623     0.9117     0.8642     0.0474
 14 C      6.1737     6.0000    -0.1737     4.0364     3.7592     0.2772
 15 H      0.8906     1.0000     0.1094     0.9592     0.9091     0.0500
 16 H      0.8819     1.0000     0.1181     0.9655     0.9200     0.0455
 17 H      0.8918     1.0000     0.1082     0.9638     0.9153     0.0484
 18 O      8.5333     8.0000    -0.5333     2.1059     1.7143     0.3916
 19 H      0.6473     1.0000     0.3527     0.9345     0.8900     0.0444
 20 C      6.1987     6.0000    -0.1987     4.0318     3.7495     0.2822
 21 H      0.8789     1.0000     0.1211     0.9645     0.9176     0.0469
 22 H      0.8759     1.0000     0.1241     0.9555     0.9066     0.0489
 23 H      0.8885     1.0000     0.1115     0.9604     0.9112     0.0492
 24 O      8.5221     8.0000    -0.5221     2.1285     1.7255     0.4030
 25 H      0.6569     1.0000     0.3431     0.9095     0.8612     0.0483
 26 C      6.1999     6.0000    -0.1999     3.9839     3.7036     0.2803
 27 H      0.8796     1.0000     0.1204     0.9623     0.9168     0.0455
 28 H      0.9005     1.0000     0.0995     0.9710     0.9189     0.0522
 29 H      0.8527     1.0000     0.1473     0.9799     0.9350     0.0449
 30 O      8.5401     8.0000    -0.5401     2.1258     1.7261     0.3997
 31 H      0.6291     1.0000     0.3709     0.8912     0.8458     0.0454
 32 C      6.1855     6.0000    -0.1855     4.0214     3.7467     0.2747
 33 H      0.8692     1.0000     0.1308     0.9619     0.9164     0.0455
 34 H      0.8757     1.0000     0.1243     0.9725     0.9261     0.0464
 35 H      0.8920     1.0000     0.1080     0.9501     0.9015     0.0486

  Mayer bond orders larger than 0.100000
B(  0-O ,  1-H ) :   0.8286 B(  0-O ,  2-C ) :   0.8914 B(  2-C ,  3-H ) :   0.9277 
B(  2-C ,  4-H ) :   0.9433 B(  2-C ,  5-H ) :   0.9343 B(  6-O ,  7-H ) :   0.7906 
B(  6-O ,  8-C ) :   0.8916 B(  8-C ,  9-H ) :   0.9430 B(  8-C , 10-H ) :   0.9436 
B(  8-C , 11-H ) :   0.9411 B( 12-O , 13-H ) :   0.7750 B( 12-O , 14-C ) :   0.9274 
B( 14-C , 15-H ) :   0.9425 B( 14-C , 16-H ) :   0.9424 B( 14-C , 17-H ) :   0.9436 
B( 18-O , 19-H ) :   0.7767 B( 18-O , 20-C ) :   0.9081 B( 20-C , 21-H ) :   0.9513 
B( 20-C , 22-H ) :   0.9344 B( 20-C , 23-H ) :   0.9361 B( 24-O , 25-H ) :   0.8169 
B( 24-O , 26-C ) :   0.9009 B( 26-C , 27-H ) :   0.9358 B( 26-C , 28-H ) :   0.9384 
B( 26-C , 29-H ) :   0.9361 B( 30-O , 31-H ) :   0.7834 B( 30-O , 32-C ) :   0.9025 
B( 32-C , 33-H ) :   0.9475 B( 32-C , 34-H ) :   0.9459 B( 32-C , 35-H ) :   0.9349 



----------------------------------
MP2 DERIVATIVE INTEGRAL GENERATION
----------------------------------


Input Wavefunction Amplitudes       ... orcacalc.mp2tsaa.tmp
Input Correlated Electron Density   ... orcacalc.pmp2re
Input Energy Weighted Density       ... orcacalc.wmp2.tmp
Input SCF Electron Density          ... orcacalc.scfp

One-Electron Terms    ...
                        ... One-Electron Terms done
Prescreening matrices              ... done

Batch handling in the gradient evaluation:
Memory available                      ... 8000.0 MB
Memory per occupied orbital in Q2     ...   85.3 MB
Memory per occupied orbital in Q3     ...    0.2 MB
Total memory requirement per |i>      ...   85.5 MB
Max. Number of orbitals possible      ...     93
Number of orbitals treated per batch  ...     42
Number of batches to be done          ...      1
Batch   0: i=   12 ...    53

---------------------------------------
MP2 TOTAL ENERGY:     -693.062817301 Eh
---------------------------------------

The final MP2 gradient
  0:   0.05584574   0.05531428  -0.00900966
  1:  -0.02874309  -0.04479143   0.01906867
  2:   0.01633658   0.02110101  -0.00014534
  3:  -0.00775701  -0.00636620  -0.01597751
  4:   0.00026525  -0.01780574   0.00580585
  5:  -0.03220342  -0.00265913   0.00502360
  6:  -0.00182040  -0.00459682   0.06111370
  7:   0.00502555   0.00351630  -0.05725633
  8:   0.01281048  -0.00992870  -0.01331735
  9:  -0.01093062   0.00107748   0.00420658
 10:  -0.00312877   0.01391153   0.00281590
 11:  -0.00254818  -0.00517278   0.00760783
 12:  -0.00148731   0.01167563  -0.00233401
 13:  -0.01254589  -0.00956271   0.00407414
 14:   0.03402027   0.01921626  -0.00415358
 15:  -0.01338118  -0.00690320   0.00083179
 16:  -0.01447142  -0.00722340   0.01174744
 17:   0.00266873  -0.01010093  -0.00852295
 18:   0.00352094  -0.04470270   0.00169724
 19:   0.00801599   0.02523502  -0.00623729
 20:  -0.00855408   0.01554430   0.04228293
 21:  -0.02049500   0.00949364  -0.00851372
 22:   0.01540646  -0.01275276  -0.02535771
 23:   0.00611906   0.00990049  -0.00446964
 24:  -0.00439414  -0.00304107  -0.00395798
 25:   0.00934686   0.00051880   0.00101969
 26:  -0.02766351   0.03820660   0.02944285
 27:  -0.01101725  -0.01530039  -0.01848990
 28:   0.01890753  -0.02907996  -0.00418793
 29:   0.01318961   0.00566341  -0.01105925
 30:  -0.00028009   0.00844468   0.00305653
 31:  -0.00140928  -0.00345565   0.00061886
 32:   0.00546095  -0.00616371   0.00282331
 33:   0.00466634   0.01078014  -0.00829081
 34:  -0.00836192  -0.00755673  -0.01363196
 35:  -0.00041376  -0.00243557   0.01167603

-----------------------------------
NORM OF THE MP2 GRADIENT:  0.188689
-----------------------------------

-------------------------   --------------------
FINAL SINGLE POINT ENERGY      -693.062817300712
-------------------------   --------------------


                            ***************************************
                            *     ORCA property calculations      *
                            ***************************************

                                    ---------------------
                                    Active property flags
                                    ---------------------
   (+) Dipole Moment


------------------------------------------------------------------------------
                       ORCA ELECTRIC PROPERTIES CALCULATION
------------------------------------------------------------------------------

Dipole Moment Calculation                       ... on
Quadrupole Moment Calculation                   ... off
Polarizability Calculation                      ... off
GBWName                                         ... orcacalc.gbw
Electron density file                           ... orcacalc.scfp
The origin for moment calculation is the CENTER OF MASS  = (-0.080174, -0.652529  0.821890)

-------------
DIPOLE MOMENT
-------------
                                X             Y             Z
Electronic contribution:     -0.74936       1.80247       1.99404
Nuclear contribution   :      0.92103      -2.39169      -1.75605
                        -----------------------------------------
Total Dipole Moment    :      0.17167      -0.58922       0.23799
                        -----------------------------------------
Magnitude (a.u.)       :      0.65825
Magnitude (Debye)      :      1.67313



--------------------
Rotational spectrum 
--------------------
 
Rotational constants in cm-1:     0.019159     0.015134     0.010612 
Rotational constants in MHz :   574.359649   453.695239   318.145309 

 Dipole components along the rotational axes: 
x,y,z [a.u.] :     0.525726    -0.103154     0.382442 
x,y,z [Debye]:     1.336290    -0.262197     0.972090 

 

                         *** MP2 UNRELAXED DENSITY ***

------------------------------------------------------------------------------
                       ORCA ELECTRIC PROPERTIES CALCULATION
------------------------------------------------------------------------------

Dipole Moment Calculation                       ... on
Quadrupole Moment Calculation                   ... off
Polarizability Calculation                      ... off
GBWName                                         ... orcacalc.gbw
Electron density file                           ... orcacalc.pmp2ur
The origin for moment calculation is the CENTER OF MASS  = (-0.080174, -0.652529  0.821890)

-------------
DIPOLE MOMENT
-------------
                                X             Y             Z
Electronic contribution:     -0.75950       1.81418       2.00283
Nuclear contribution   :      0.92103      -2.39169      -1.75605
                        -----------------------------------------
Total Dipole Moment    :      0.16153      -0.57751       0.24678
                        -----------------------------------------
Magnitude (a.u.)       :      0.64847
Magnitude (Debye)      :      1.64828



--------------------
Rotational spectrum 
--------------------
 
Rotational constants in cm-1:     0.019159     0.015134     0.010612 
Rotational constants in MHz :   574.359649   453.695239   318.145309 

 Dipole components along the rotational axes: 
x,y,z [a.u.] :     0.519381    -0.115070     0.370829 
x,y,z [Debye]:     1.320162    -0.292485     0.942572 

 

                           *** MP2 RELAXED DENSITY ***

------------------------------------------------------------------------------
                       ORCA ELECTRIC PROPERTIES CALCULATION
------------------------------------------------------------------------------

Dipole Moment Calculation                       ... on
Quadrupole Moment Calculation                   ... off
Polarizability Calculation                      ... off
GBWName                                         ... orcacalc.gbw
Electron density file                           ... orcacalc.pmp2re
The origin for moment calculation is the CENTER OF MASS  = (-0.080174, -0.652529  0.821890)

-------------
DIPOLE MOMENT
-------------
                                X             Y             Z
Electronic contribution:     -0.77156       1.81037       2.00385
Nuclear contribution   :      0.92103      -2.39169      -1.75605
                        -----------------------------------------
Total Dipole Moment    :      0.14947      -0.58132       0.24780
                        -----------------------------------------
Magnitude (a.u.)       :      0.64937
Magnitude (Debye)      :      1.65057



--------------------
Rotational spectrum 
--------------------
 
Rotational constants in cm-1:     0.019159     0.015134     0.010612 
Rotational constants in MHz :   574.359649   453.695239   318.145309 

 Dipole components along the rotational axes: 
x,y,z [a.u.] :     0.527080    -0.116749     0.360887 
x,y,z [Debye]:     1.339732    -0.296753     0.917301 

 

Timings for individual modules:

Sum of individual times         ...      530.807 sec (=   8.847 min)
GTO integral calculation        ...        1.391 sec (=   0.023 min)   0.3 %
SCF iterations                  ...       25.152 sec (=   0.419 min)   4.7 %
MP2 module                      ...      504.264 sec (=   8.404 min)  95.0 %
                             ****ORCA TERMINATED NORMALLY****
TOTAL RUN TIME: 0 days 0 hours 8 minutes 52 seconds 361 msec
