12
energy=-0.2685367602 Properties=species:S:1:pos:R:3:forces:R:3 pbc="T T T" Lattice="200.000 0.000 0.000 0.000 200.000 0.000 0.000 0.000 200.000"
C    1.0549598843   -0.9862948618   -1.8985666562   -0.0135060059    0.0156621332   -0.0763777104
H    1.2221598696   -1.9491765045   -1.4800908157   -0.0032272489    0.0164535188    0.0275771403
H    1.4805686974   -0.2459591673   -1.2658632175   -0.0100792394   -0.0053813193    0.0930847400
H    1.3080397249   -0.9212062911   -2.9700790942   -0.0285407899   -0.0137230070   -0.0202469247
C   -0.3147078012   -0.6673880077   -1.8136856195    0.0999310740   -0.0003805233    0.0431312872
N   -1.3536416978   -0.3011676753   -1.3628084958   -0.0124857921    0.0441890391    0.0758758310
C   -1.0987529460    0.9073740966    2.0104194321   -0.0479233096    0.0485552868    0.0035769190
H   -1.6786100299    0.9825273150    1.0643128093    0.0177164448   -0.0666748806   -0.0941388924
H   -1.0434708842    1.6984498841    2.7093998229    0.0388272602   -0.0100206182    0.0319156201
H   -1.3316297011    0.1439595263    2.7622608722    0.0210537369   -0.0036653649    0.0072546252
C    0.3109912948    0.6252377157    1.6468636997   -0.1055813307    0.0083113487   -0.0033326642
N    1.3974679904    0.4259464249    1.3509417119    0.0438146864   -0.0333261274   -0.0883194570
12
energy=-0.2329136001 Properties=species:S:1:pos:R:3:forces:R:3 pbc="T T T" Lattice="200.000 0.000 0.000 0.000 200.000 0.000 0.000 0.000 200.000"
C    0.4836932178    2.3627752228   -0.4175044719    0.0269076250   -0.0026682911   -0.0143976646
H   -0.4479706882    2.8315026114   -0.6156564757   -0.0054867346   -0.0184034436    0.0089726365
H    1.2337398691    3.2334978816   -0.4976390334    0.0099763952   -0.0049082363   -0.0213828381
H    0.4658598075    2.1276569145    0.6558389798   -0.0341853902   -0.0634820844    0.0085715444
C    0.7715107621    1.1648554608   -1.0709064194   -0.0218183830    0.1084614807    0.0801798580
N    1.0564948739    0.1664206275   -1.5587254765    0.0046932921   -0.0323377953   -0.0120327637
C   -0.6447175799   -2.1908770128    0.0488747355    0.0408502043   -0.0929860096    0.0179478441
H    0.2615181997   -1.8800384931   -0.5777470007   -0.0313885439    0.0716232261   -0.0180337189
H   -1.6595995731   -2.1498639157   -0.6164337320   -0.0048208188    0.0131069707    0.0005075358
H   -0.4058516182   -3.1864959749    0.6103212605   -0.0443011392   -0.0072787936    0.0486457896
C   -0.7973415334   -1.1277254183    1.0485387078    0.0401086981   -0.0904447311   -0.1090086115
N   -0.8565374632   -0.4158959468    1.9689087188    0.0194632524    0.1193182217    0.0100309026
12
energy=-0.2079842153 Properties=species:S:1:pos:R:3:forces:R:3 pbc="T T T" Lattice="200.000 0.000 0.000 0.000 200.000 0.000 0.000 0.000 200.000"
C   -2.4699827819   -0.4676199538   -0.1544401378   -0.0372316334   -0.0264993338    0.0231512430
H   -3.4383053374   -0.8869279223    0.0506307547    0.0045904479   -0.0352667962    0.0128015236
H   -2.1262869599   -0.3003852015   -1.2632591237    0.0438882200    0.0576503078    0.0309931082
H   -2.5917202136    0.6163420187    0.0989151144    0.0793509343    0.0000920455   -0.0413551690
C   -1.3672530813   -1.1657889236    0.3643792391   -0.0596012610    0.0886562716   -0.0261537775
N   -0.5883103196   -1.7219523957    0.9953452453    0.0830327543   -0.0198612592   -0.0114264975
C    2.6710519211    0.5412851231   -0.2100057945   -0.0008824027    0.0120039673   -0.0129249366
H    3.4107202517    0.7783413256   -1.0595655714   -0.0054327414    0.0133671663   -0.0063146298
H    2.4360472236   -0.4809169691   -0.2271718638   -0.0506224539   -0.0124662517    0.0336727122
H    2.9266599315    0.7664363659    0.8651262109   -0.0221258870   -0.0127130776    0.0057762408
C    1.3773093788    1.1535626919   -0.4063945935    0.0421779221   -0.0394731213    0.0192071705
N    0.3628792054    1.6338063843   -0.5363561316   -0.0771428708   -0.0254909471   -0.0274264737
12
energy=-0.1877789721 Properties=species:S:1:pos:R:3:forces:R:3 pbc="T T T" Lattice="200.000 0.000 0.000 0.000 200.000 0.000 0.000 0.000 200.000"
C   -0.6642635281    0.4581611447    1.9717493687    0.0563570428    0.0156605905    0.0622145305
H   -1.8308759707    0.5402333293    1.9277343413    0.0024271216   -0.0003969784   -0.0250060370
H   -0.1461515646    1.1627275167    1.3697828124   -0.0658336156    0.0060950576   -0.0483722242
H   -0.3317336278    0.3974729430    2.9620785196   -0.0202335549   -0.0449644839    0.0257542281
C   -0.6105997986   -0.8830998902    1.5244483105   -0.0076875990    0.1232196139    0.0193346972
N   -0.5877618151   -1.9799990459    1.1536574887    0.0445628775   -0.0428392098   -0.0735798357
C    1.3373817931   -0.2259835708   -1.9694107186   -0.0106973326   -0.0105878036    0.0049030941
H    1.1142058727   -1.1573249809   -1.6684919411   -0.0322292947   -0.0088307116    0.0405730393
H    2.4256799144   -0.0017919347   -1.7404528620   -0.0010407826    0.0116563542    0.0005610148
H    1.1776874342   -0.1743435206   -2.9940210147   -0.0086743885    0.0217849587   -0.0063917629
C    0.5460533460    0.8270613640   -1.4907534032    0.0576029995   -0.1034848530   -0.0623909082
N   -0.1073761453    1.7737833341   -1.1742376397   -0.0145545019    0.0326869511    0.0623996499
12
energy=-0.1926049114 Properties=species:S:1:pos:R:3:forces:R:3 pbc="T T T" Lattice="200.000 0.000 0.000 0.000 200.000 0.000 0.000 0.000 200.000"
C   -0.7608645407    0.4976587672    1.9095114269    0.0561158733    0.0322627191    0.0801855145
H   -1.9324242204    0.8269636897    1.8696523065    0.0142115167    0.0067517174   -0.0349037564
H   -0.2641188791    1.3350660849    1.3416391045   -0.0752258561   -0.0268022098   -0.0398114785
H   -0.5033050334    0.6357143141    3.0046249321   -0.0183196256   -0.0519902809    0.0357306233
C   -0.6286796751   -0.8412651851    1.4582187315   -0.0269739595    0.1358833264    0.0383670327
N   -0.5037736497   -1.9325183300    1.1852811886    0.0539839144   -0.0520010795   -0.0888784149
C    1.3662021694   -0.3232928405   -1.8916991934   -0.0047699109   -0.0310183051   -0.0223691134
H    0.8257446971   -1.1925329036   -1.5025130449   -0.0252785739   -0.0115941335    0.0524808474
H    2.3206390149   -0.2678711159   -1.5037447716   -0.0008901160    0.0061053420    0.0063115445
H    1.4745008150   -0.3539056153   -2.9821130643    0.0029531693    0.0259321484   -0.0074124910
C    0.5894543700    0.8891540201   -1.5364415257    0.0324180137   -0.0688592900   -0.0518997780
N   -0.1198599157    1.6711858301   -1.1498562266   -0.0082239312    0.0353305596    0.0321989557
12
energy=-0.1821271672 Properties=species:S:1:pos:R:3:forces:R:3 pbc="T T T" Lattice="200.000 0.000 0.000 0.000 200.000 0.000 0.000 0.000 200.000"
C    0.7380943124    2.5581504725   -0.1513925791    0.0152240172   -0.0122492506    0.0032431898
H   -0.2826786639    2.9089236891   -0.3175719548   -0.0079966456   -0.0379741681    0.0191547200
H    1.4459904825    3.2087384267   -0.6002395522    0.0126940515   -0.0010361547   -0.0265579550
H    1.0399086446    2.6331064422    0.8941075288   -0.0359774492   -0.0383562340   -0.0035290965
C    0.8574829693    1.3339976433   -0.8806361820   -0.0219351111    0.0191300374    0.0286066101
N    0.8782602377    0.3505483507   -1.4938983736    0.0159655234   -0.0381366618   -0.0175015005
C   -0.7214405683   -2.5804820999    0.2084826176    0.0287706465   -0.0034951579    0.0077055967
H    0.1064353968   -2.5666550304   -0.5925228246    0.0018805050    0.0853436620   -0.0122189116
H   -1.6035705322   -2.7022438460   -0.2638409205   -0.0036396539    0.0151823653   -0.0000786758
H   -0.4392061661   -3.3026941410    0.8998705006   -0.0163398760   -0.0006078088    0.0230751384
C   -0.8020706345   -1.3598034762    0.9663432703    0.0058497743   -0.0385074149   -0.0508101444
N   -0.9592556288   -0.3221662886    1.3700342337    0.0055047323    0.0507062719    0.0289120572
12
energy=-0.1741559454 Properties=species:S:1:pos:R:3:forces:R:3 pbc="T T T" Lattice="200.000 0.000 0.000 0.000 200.000 0.000 0.000 0.000 200.000"
C    0.4613148334    2.3505703792   -0.3966508442    0.0236891178   -0.0082373009    0.0357933582
H   -0.4164645425    2.7910903608   -0.7861183178   -0.0069193533   -0.0209616914   -0.0026760044
H    1.3343148150    3.0285446527   -0.7689386095    0.0181586745   -0.0104859879   -0.0289619366
H    0.4561872551    2.5840677522    0.6535596629   -0.0202155572   -0.0487856577    0.0017488645
C    0.8613411326    1.0923951805   -0.9556377004   -0.0329317202    0.1707855402    0.0422344863
N    1.0069706119    0.1526999093   -1.5837617979    0.1048218268    0.1056085844   -0.0814803221
C   -0.6058203204   -2.0487860141   -0.0281584310   -0.0112686318   -0.1449325817    0.0951066557
H    0.1987991769   -1.5606314044   -0.6983702302   -0.0658654972   -0.0337765847    0.0205801397
H   -1.6671613774   -2.0949248999   -0.5911812777   -0.0236798619    0.0000185119    0.0158914756
H   -0.1164837316   -2.9788016073    0.4177720323   -0.0367950601   -0.0291372859    0.0567848744
C   -0.7409335038   -1.2276152920    1.1307471094    0.0256693816   -0.1097696581   -0.1779933713
N   -0.9711394414   -0.4228320257    1.9254601995    0.0253361667    0.1296746260    0.0229712658
12
energy=-0.1809886700 Properties=species:S:1:pos:R:3:forces:R:3 pbc="T T T" Lattice="200.000 0.000 0.000 0.000 200.000 0.000 0.000 0.000 200.000"
C   -2.4256118857    1.3278942500   -0.6796844770    0.0142757943   -0.0291249446    0.0188374458
H   -3.3227880743    1.6954881347   -0.1087042590    0.0049827983    0.0044217835    0.0080552668
H   -2.7548755341    0.2602692250   -1.0837983522    0.0426900858   -0.0291809946    0.0206053365
H   -2.3426683274    1.9662437150   -1.5474804779    0.0107461836    0.0079544796    0.0043477358
C   -1.2102414097    1.2290901635    0.0435390767   -0.0279571494    0.0241010086   -0.0194997620
N   -0.1503574165    1.3046356564    0.4809401732   -0.0069846594    0.0917246263   -0.0191788883
C    2.4343679400   -0.7050402299    0.3852748643    0.0425260494   -0.0434614168   -0.0592829584
H    2.1130684176    0.2132778596   -0.2087005666   -0.0891416959    0.0103440630    0.0821853187
H    3.3671953006   -1.2641766330    0.0111979013    0.0001270125   -0.0507119283    0.0061696196
H    2.6165904468   -0.4808443859    1.4327934883   -0.0361779953    0.0352709100   -0.0177102741
C    1.1761394306   -1.3549281561    0.0204258977    0.0670744300    0.0280949606    0.0251232793
N    0.1953659059   -1.9027867356   -0.1750780098   -0.0221608540   -0.0494325473   -0.0496521195
12
energy=-0.1557463815 Properties=species:S:1:pos:R:3:forces:R:3 pbc="T T T" Lattice="200.000 0.000 0.000 0.000 200.000 0.000 0.000 0.000 200.000"
C    1.8007837386   -0.2663327317    1.6992755244   -0.0023438178   -0.0783404907    0.0559657209
H    2.7814375947    0.0969480841    1.4441990867   -0.0035501795    0.0055515264   -0.0164123811
H    1.6585727200   -1.0236183190    0.8525726452   -0.0472003153    0.1003043982   -0.0400233374
H    1.8426196919   -0.6735189189    2.6963318517    0.0126523996    0.0509433276    0.0406326889
C    0.7922173265    0.6725257687    1.7828864898    0.0518745812   -0.0882443808   -0.0695560590
N    0.0299417324    1.4495532771    2.1005276066   -0.0349793469    0.0196936232    0.0166057281
C   -2.0182202443   -0.6180759672   -2.4738582189    0.0054630804    0.0001614653    0.0137662016
H   -2.0525757599   -1.3943838717   -3.1878119772    0.0112244088   -0.0017740613   -0.0007672172
H   -1.9961619877    0.3896965936   -3.0752367916    0.0087381519    0.0055047323    0.0111241358
H   -2.9252276492   -0.5426864433   -1.7554937560    0.0101435169    0.0119566590    0.0121582335
C   -0.8110809232   -0.5379440223   -1.7442756896   -0.0083401451    0.0070468801   -0.0087042133
N    0.2224155899   -0.5801410473   -1.2517826771   -0.0036823342   -0.0328036792   -0.0147900149
12
energy=-0.1511808824 Properties=species:S:1:pos:R:3:forces:R:3 pbc="T T T" Lattice="200.000 0.000 0.000 0.000 200.000 0.000 0.000 0.000 200.000"
C   -1.7791301329   -0.5314021114    1.4548571712   -0.0848494959    0.0061608779    0.0769083861
H   -1.5751489375   -1.3975230235    0.8151644275    0.0101172917    0.0737289597   -0.0315222413
H   -2.1672156972    0.2726873987    0.9510270144    0.0714211374   -0.0652952265   -0.0505586905
H   -2.4237448369   -0.7341143007    2.2856851408    0.0213000486   -0.0165743607    0.0625755134
C   -0.4588483542   -0.4040891786    2.0455906258   -0.0620093564    0.0085571462   -0.0733962590
N    0.5297871276   -0.3157442202    2.6158320694    0.0374805162   -0.0047544843    0.0145601583
C    1.6925108018    0.5713373586   -2.7052983972   -0.0048182477   -0.0006088373    0.0091479857
H    2.0987452401    1.6025449620   -2.4749880524   -0.0049354900   -0.0008911444    0.0126266886
H    1.2145965092    0.4649598361   -3.7331681688   -0.0105739196   -0.0012279590    0.0008731467
H    2.4079695220   -0.2343481431   -2.5431582805   -0.0037543251   -0.0008073265    0.0132895190
C    0.5178124800    0.4012706957   -1.8993559961    0.0209472932    0.0035393809   -0.0094050961
N   -0.4740689059    0.2857749844   -1.3308964327    0.0096750619   -0.0018259976   -0.0250991109
12
energy=-0.1610256625 Properties=species:S:1:pos:R:3:forces:R:3 pbc="T T T" Lattice="200.000 0.000 0.000 0.000 200.000 0.000 0.000 0.000 200.000"
C    1.9975062478    2.0330915523    1.0206484330   -0.0057993807   -0.0062647504    0.0008916586
H    2.8186627669    1.7341147654    0.2706798958   -0.0143950934   -0.0100766683   -0.0041266209
H    2.5852455906    2.1433549272    2.0706667427   -0.0067625160   -0.0140078853    0.0095634760
H    1.5027648637    2.9224653587    0.6513091869   -0.0168006177   -0.0124523678   -0.0112316079
C    1.1159130581    0.9399316483    1.2995950620    0.0132900332    0.0473725793   -0.0117581699
N    0.2944393316    0.1829542173    1.5976185418    0.0851811683    0.0655297111    0.0545994366
C   -1.2645459470   -1.8879489023   -0.3412117893   -0.0434717013   -0.0555389177    0.0007260796
H   -2.2954237592   -2.1916678355   -0.2184231705   -0.0149823335   -0.0164869431   -0.0523034413
H   -0.8268643703   -1.4204723051    0.5689556702   -0.0050378199    0.0405925797   -0.0353675835
H   -0.7866679155   -2.9997379033   -0.4749907802   -0.0097305977   -0.0233769859   -0.0385105002
C   -1.1112057407   -1.0018591832   -1.4081273640   -0.0140742198   -0.0741819881    0.1235769973
N   -1.1426434997   -0.2678374904   -2.2935144264    0.0325820501    0.0588911223   -0.0360602387
12
energy=-0.1483210474 Properties=species:S:1:pos:R:3:forces:R:3 pbc="T T T" Lattice="200.000 0.000 0.000 0.000 200.000 0.000 0.000 0.000 200.000"
C   -0.6238309567   -1.7769012410    1.0421590075    0.0406913101   -0.0732867300    0.0518288156
H   -1.0832235157   -0.8335172137    0.7675775147    0.0087206684   -0.0819729455   -0.0052831032
H   -0.7952796966   -1.6554997915    2.0299111858    0.0051365503    0.0072037174    0.0158652503
H   -0.9659200090   -2.6555194568    0.4741654742    0.0202458962   -0.0144141196    0.0043677904
C    0.7942204001   -1.7486972886    0.8895298220   -0.1335338521   -0.0055561543    0.0062858335
N    1.8910790205   -1.8125649437    0.5235187682    0.0626701300    0.0420683931   -0.0290966624
C    0.3372456081    2.5354090473   -1.3574236451   -0.0115869344    0.0081683954   -0.0094678310
H    1.1316940129    2.8978121386   -0.7362984324    0.0054296561   -0.0174937872    0.0087088413
H   -0.4369840967    3.1768618530   -1.8376884750   -0.0141837488    0.0002859067    0.0010994038
H    0.8361316736    1.8147859802   -1.9983504338    0.0048357312   -0.0204541556    0.0139184109
C   -0.7610123409    1.6911974385   -0.7253970160    0.0406830826    0.0359157427   -0.0315494950
N   -1.5793050705    1.0139839448   -0.3003417440   -0.0291084895    0.1195341944   -0.0266772542
12
energy=-0.1356522152 Properties=species:S:1:pos:R:3:forces:R:3 pbc="T T T" Lattice="200.000 0.000 0.000 0.000 200.000 0.000 0.000 0.000 200.000"
C   -0.0773507296    2.5104033424    1.3976882105   -0.0010109578    0.0017519498   -0.0241658004
H   -0.8369782135    3.2963367275    1.5515653038   -0.0077996991   -0.0027870760   -0.0030626983
H    0.6000787243    2.9031515846    0.5795072260   -0.0043127688   -0.0166525222   -0.0176804493
H    0.6227809471    2.1464584196    2.1337395404   -0.0001079863   -0.0019082729    0.0010695790
C   -0.6802252907    1.2439479084    0.8715639250   -0.0152898374    0.0321840433    0.0168124448
N   -1.1775990232    0.1942350834    0.7925743980   -0.0401971440    0.0491276144    0.0964328308
C    0.4799768125   -2.1898889685   -0.0705447595    0.0826270342   -0.1312460844   -0.0563020212
H   -0.5442911827   -2.3857695704    0.0913980420    0.0165933868    0.1078413306    0.0327332310
H    0.7358811063   -1.6659105788    0.7740974568   -0.0868606130    0.0035069850   -0.0276589014
H    1.1245031668   -3.0125066622   -0.3153409453    0.0417994556   -0.0076906843   -0.0389357607
C    0.7549860538   -1.2358847007   -1.1285782174   -0.0474383995   -0.0701839224    0.0539227222
N    0.6458044764   -0.5681986303   -2.0566037835    0.0619970151    0.0360566392   -0.0331651764
12
energy=-0.1374689289 Properties=species:S:1:pos:R:3:forces:R:3 pbc="T T T" Lattice="200.000 0.000 0.000 0.000 200.000 0.000 0.000 0.000 200.000"
C    1.4156912240   -1.9622790625    0.2870495843    0.0551763922    0.0196422012    0.0181802718
H    1.3802530995   -2.4375523617   -0.7726710088   -0.0139790889   -0.0310758978   -0.0057623568
H    2.0781998836   -2.7459427603    0.7487618872   -0.0155479762   -0.0388575992   -0.0029783661
H    1.9370113450   -0.9663009132    0.2279412877   -0.0822917623    0.0452838149    0.0366114833
C    0.0816476171   -2.0341683146    0.6778742944    0.0474132027    0.0546256618   -0.0322508920
N   -1.0744212229   -2.0226349110    0.5205477778   -0.0224544740   -0.0061007140   -0.0140917033
C   -0.9726487811    2.5777037770   -1.2672941923   -0.0007229943   -0.0033995129    0.0140870753
H   -0.4540228140    3.0390618516   -2.1600682005    0.0080768641    0.0028544389    0.0034365367
H   -1.7055197633    3.2939029263   -0.8616976003   -0.0005029078   -0.0067224068    0.0054018881
H   -1.6143851533    1.8259156380   -1.7279302892   -0.0010407826   -0.0164452913    0.0209709474
C   -0.1320990033    2.0119118545   -0.2883089109   -0.0125027614   -0.0172094232   -0.0111914987
N    0.6211214886    1.3694671108    0.3130067499    0.0383768029   -0.0025952717   -0.0324133857
12
energy=-0.1378965014 Properties=species:S:1:pos:R:3:forces:R:3 pbc="T T T" Lattice="200.000 0.000 0.000 0.000 200.000 0.000 0.000 0.000 200.000"
C   -1.1926236889   -1.5640201315    1.1220005340   -0.0201831613   -0.0415366889    0.0229075024
H   -0.6813290801   -1.5052724585    0.2548897259   -0.0106376830    0.0454236829    0.0353423867
H   -2.2335382271   -1.5970013540    0.9392705419   -0.0151998488    0.0016177382    0.0209807176
H   -0.8648591476   -2.5099585620    1.5074694654   -0.0045451965   -0.0076346343    0.0337621866
C   -0.8819813289   -0.5651596841    2.0805494900   -0.0016696745   -0.0717204138   -0.0764003361
N   -0.4508455293    0.1687385293    2.8467739330    0.0103445772    0.0479233096    0.0233111657
C    1.2605683245    1.8022821851   -2.4458464464    0.0014583298   -0.0196206039   -0.0045601089
H    2.2052901066    2.1936032319   -2.3245199454   -0.0011652240   -0.0035568644    0.0122415373
H    0.7280352958    2.4555519090   -1.8946760688   -0.0014110215   -0.0086425068    0.0153078351
H    0.8297126554    1.9256970375   -3.4537773568   -0.0059315354   -0.0097619652    0.0009168555
C    0.8236976173    0.5374503763   -1.9408208361    0.0025196813    0.0178917940    0.0081236582
N    0.4437627395   -0.4185395849   -1.4737549981    0.0464207568    0.0496171525   -0.0919323715
12
energy=-0.1375979109 Properties=species:S:1:pos:R:3:forces:R:3 pbc="T T T" Lattice="200.000 0.000 0.000 0.000 200.000 0.000 0.000 0.000 200.000"
C    0.0849431666    0.3462999379   -2.0524674279    0.0102083087   -0.0046110168   -0.0053093284
H   -0.6825684776    1.1600382918   -2.2304673123    0.0058538881    0.0092446592    0.0183561353
H    0.5819415352    0.2966356355   -2.9265872016   -0.0033393490   -0.0186903787   -0.0106304839
H    0.8872801102    0.7591383203   -1.3060230087   -0.0072870211    0.0413567116    0.0097059152
C   -0.3867387367   -0.9754634538   -1.6496929088    0.0154096508    0.0689755039   -0.1013986598
N   -0.6177694211   -2.0589029556   -1.3082229670   -0.0073456423   -0.0437817763    0.0621605373
C   -0.1830322830   -0.3005475160    1.9543951487    0.0477860127    0.0318971082    0.0137245497
H   -1.2939426316   -0.1979190413    1.7642365966    0.0070700200   -0.0212141738   -0.0290467830
H    0.0403632291   -0.9257265500    2.7989424548    0.0048408734   -0.0014125642    0.0039523001
H    0.1537223500   -0.9409099039    1.0361325752   -0.0523553776   -0.0248276024    0.0427286524
C    0.3509559475    0.9649661866    1.5986547524   -0.0558186538   -0.0998364574    0.0769191848
N    0.7550925962    2.0177902015    1.4982281652    0.0349772900    0.0629010151   -0.0811635622
12
energy=-0.1403334715 Properties=species:S:1:pos:R:3:forces:R:3 pbc="T T T" Lattice="200.000 0.000 0.000 0.000 200.000 0.000 0.000 0.000 200.000"
C   -0.2977257025    0.8193616790   -2.1938817872   -0.0043811601    0.0056260884   -0.0043580202
H   -0.7557106279    1.7235913416   -1.9464211001    0.0147241947    0.0006222070    0.0277499185
H   -0.3061324563    0.7217935633   -3.4208638366   -0.0045071442   -0.0176609089   -0.0056739109
H    0.6841506227    0.8425576542   -1.9661340500   -0.0034308803    0.0200808314    0.0149360536
C   -0.7818628058   -0.4515831928   -1.7402443809    0.0191614048    0.0773994669   -0.0281463826
N   -1.2191080043   -1.4481852937   -1.3817571019    0.0183427655   -0.0460726294    0.0665422116
C    0.5536573505   -0.9791284429    1.8797832457    0.0229496685   -0.0001054152    0.0139009274
H   -0.4652584598   -1.2726697811    2.0642350158    0.0036319406   -0.0025844731   -0.0526397416
H    1.0432023730   -1.6346506102    2.6281204466    0.0112557763    0.0090657104    0.0144686270
H    0.8523445573   -1.2383604981    0.9294190411   -0.0559502943   -0.0218878028    0.0077693601
C    0.7617918215    0.4691515539    1.7461295944   -0.0221500554   -0.0718659382    0.0064642680
N    0.9411327752    1.6318301580    1.7691921984    0.0003537838    0.0473823495   -0.0610122825
12
energy=-0.1240072930 Properties=species:S:1:pos:R:3:forces:R:3 pbc="T T T" Lattice="200.000 0.000 0.000 0.000 200.000 0.000 0.000 0.000 200.000"
C   -1.2173859357    0.5918804211   -1.4533641847   -0.0184579510   -0.0320215496   -0.0240213044
H   -2.0031831593    1.3784662382   -1.2865275392    0.0154554165    0.0065768824    0.0173354072
H   -1.0258094902    0.5212115256   -2.5965027213   -0.0048943523   -0.0091999220   -0.0073759813
H   -0.4371785972    0.8930506183   -0.8957305999   -0.0173390068    0.0569607379    0.0055859791
C   -1.6386266919   -0.6655051466   -0.8960802398   -0.0488782174    0.0956702415   -0.0776442359
N   -1.8217617113   -1.6822183797   -0.3938595917    0.0325131446   -0.0473340127    0.0456627955
C    1.4724896402   -0.7081949490    0.7181490986    0.0067769142    0.0183139692   -0.0021540704
H    0.4999076229   -1.1151474350    0.6128861124    0.0123988888   -0.0583115956    0.0360417268
H    1.7913599517   -1.2023874109    1.6904930159   -0.0081118311    0.0021602410    0.0031079497
H    2.1965163424   -1.0157894896    0.0141303226    0.0200952296    0.0022090920    0.0014228486
C    1.5297054260    0.6841753434    0.9600372702    0.0529950681   -0.1165609705    0.0348291945
N    1.6229091322    1.8048408884    1.1465202174   -0.0425538174    0.0815374006   -0.0327897953
12
energy=-0.1231335626 Properties=species:S:1:pos:R:3:forces:R:3 pbc="T T T" Lattice="200.000 0.000 0.000 0.000 200.000 0.000 0.000 0.000 200.000"
C   -1.1345421255   -1.4543632861    1.1532940622    0.0560454251   -0.0119643723    0.1132545316
H   -0.4144152241   -1.1454435739    0.2666346227   -0.0658613835   -0.0648884780    0.0028688371
H   -2.1172512669   -1.2181560655    0.7258985912    0.0002997907    0.0081308572   -0.0133851641
H   -1.0353876880   -2.5570208872    1.5225345712   -0.0226185104    0.0004602275    0.0394432965
C   -0.7141357878   -0.6016580483    2.2268910326   -0.0720608279   -0.0731376060   -0.0534851204
N   -0.4170411578    0.1666816723    3.0181814273    0.0346636154    0.0565128517    0.0287685896
C    1.2054010101    1.7785039325   -2.5043359156   -0.0012104755   -0.0171137781   -0.0069424933
H    2.1896275217    2.1345474166   -2.4050763952    0.0032174787   -0.0086779880    0.0110485453
H    0.4947183509    2.5571954283   -1.9610317841   -0.0051884866   -0.0139662334    0.0098154442
H    0.8243426238    1.9540563018   -3.5311410892   -0.0099249732   -0.0113257103    0.0001825483
C    0.6863298707    0.5066093345   -2.0710353744    0.0333621229    0.0586196138   -0.0166350387
N    0.3843257799   -0.4872491898   -1.6061095493    0.0492762242    0.0773506159   -0.1149329478
12
energy=-0.1211986698 Properties=species:S:1:pos:R:3:forces:R:3 pbc="T T T" Lattice="200.000 0.000 0.000 0.000 200.000 0.000 0.000 0.000 200.000"
C   -0.9614321412   -0.1026198690    3.3698921207   -0.0009785619   -0.0009255972   -0.0063722225
H   -1.5717273562    0.6703850233    3.8875353414   -0.0028940339    0.0073852373   -0.0089248140
H    0.0978575503    0.1553173191    3.6258491368    0.0013143480    0.0028518678   -0.0106479674
H   -1.1826076753   -1.1139743440    3.6790492145    0.0004062343   -0.0015586029   -0.0064760951
C   -1.1650133656    0.3022698709    2.0134943045   -0.0000231399   -0.0075251053    0.0472481379
N   -1.4929358416    0.6689800964    0.9639699540    0.0243637754   -0.0016347075   -0.0192971591
C   -0.1073692658   -0.1316678086   -2.1979015771    0.0384482795    0.0109930095    0.0148635485
H   -0.1972875806    0.2427196912   -1.2197853920   -0.0703875538   -0.0028174151   -0.0161285313
H   -0.6334322099   -1.0887751216   -2.4492560705    0.0054219427    0.0004890239   -0.0002447690
H   -0.4425018434    0.6464408098   -2.8092842054   -0.0041019383    0.0071517811    0.0136181060
C    1.3922366333   -0.2388380002   -2.2515840279   -0.0208310794   -0.0105296967   -0.0207426334
N    2.4972977509   -0.4873762508   -2.1039350930    0.0292617273   -0.0038797950    0.0131043996
12
energy=-0.1065751893 Properties=species:S:1:pos:R:3:forces:R:3 pbc="T T T" Lattice="200.000 0.000 0.000 0.000 200.000 0.000 0.000 0.000 200.000"
C    0.1372693826    1.9200905968   -0.8465200326   -0.0214558575    0.0489538078    0.0815893369
H    0.1993448875    1.9353014143   -1.9485465002   -0.0014665574   -0.0253788470    0.0041291920
H    0.3281891464    0.8888161064   -0.4249695014   -0.0213288450    0.0285315339   -0.1268530972
H    0.8628894269    2.5181501218   -0.4517037296   -0.0133774507    0.0586185853   -0.0068571326
C   -1.1635664707    2.4110445020   -0.4197473573    0.0601041688    0.0153880536   -0.0084908117
N   -2.0732190102    2.6607569369    0.2494586952   -0.0382513330    0.0083519721    0.0165769318
C    1.1546107234   -3.2805513998    1.1953291258   -0.0003938930   -0.0078804318   -0.0079200268
H    1.2752506682   -2.8319921462    2.2192555455   -0.0046752943    0.0098211006   -0.0024363775
H    2.0262806562   -3.7722870397    0.8182623155    0.0022497154    0.0041086232   -0.0085643453
H    0.2054901079   -3.8470783403    1.1440868358   -0.0065254603    0.0073189028   -0.0056029484
C    0.9556811050   -2.2039156581    0.2092850432   -0.0005332468   -0.0214409451    0.0194293138
N    0.7913660259   -1.3042227848   -0.4656814229    0.0456540538   -0.1263923555    0.0449999651
12
energy=-0.1060456285 Properties=species:S:1:pos:R:3:forces:R:3 pbc="T T T" Lattice="200.000 0.000 0.000 0.000 200.000 0.000 0.000 0.000 200.000"
C   -1.5254229815    1.4585876989   -0.9591488523   -0.1011230375    0.0607978525   -0.0568542942
H   -2.1630315738    2.0721177757   -1.4829202515   -0.0092595716    0.0725786481    0.0155567179
H   -1.9920548321    0.5836837813   -0.5436656816    0.1067177584    0.0017653196   -0.0191125539
H   -0.9120903164    1.2016128095   -1.7893931071   -0.0055227300   -0.0459147637    0.0761817923
C   -0.8628382664    2.2512588213    0.0312367353    0.0047220884   -0.0890640486   -0.0326339864
N   -0.3584970507    2.8917223887    0.8536200437   -0.0031881682    0.0327825962    0.0091664977
C    1.6699550323   -3.2136685361    0.2929211383    0.0015827712    0.0028508394    0.0048619564
H    1.4255265554   -4.0397106039   -0.4573744904   -0.0041955265    0.0023088508   -0.0018044003
H    1.5331883648   -3.5939716795    1.2807449117   -0.0022399452    0.0065342021    0.0023361045
H    2.7092039715   -2.8543782895    0.1357826411   -0.0018604504    0.0093696148    0.0020537974
C    0.7934938168   -2.0492245768    0.0930339511    0.0199934139   -0.0053165275    0.0016079680
N    0.2508018704   -1.0829746327   -0.1833628395   -0.0056255741   -0.0486920695   -0.0013595995
12
energy=-0.1168636783 Properties=species:S:1:pos:R:3:forces:R:3 pbc="T T T" Lattice="200.000 0.000 0.000 0.000 200.000 0.000 0.000 0.000 200.000"
C   -0.0377076966   -0.1948913502   -2.3074639474   -0.0267764988    0.0084147071    0.0058168642
H    0.1685795863    0.7772149944   -2.8399302166    0.0227552931    0.0049498882   -0.0231466150
H   -0.9949973338   -0.0104583780   -1.8214308104    0.0045292557   -0.0503427179    0.0622746943
H   -0.2171562125   -0.9309407778   -3.2583143732    0.0126220606   -0.0006684869   -0.0051062113
C    0.9824686659   -0.6799080845   -1.4525991623   -0.0795067432    0.0104659333   -0.0153870251
N    1.7411943916   -1.2279123550   -0.7830477621    0.0484539853    0.0287655043    0.0331019272
C   -0.1539259100    1.5767616555    2.1663716613   -0.0086954715   -0.0076012100    0.0047354582