 6
 energy=-3143.0602566798025 cutoff=4.00000000 nneightol=1.20000000 pbc="T T T" Lattice="200.00000000       0.00000000       0.00000000       0.00000000     200.00000000       0.00000000       0.00000000       0.00000000     200.00000000" Properties=species:S:1:pos:R:3:forces:R:3:Z:I:1:map_shift:I:3:n_neighb:I:1:force:R:3
 O              -0.19957752     -0.54621707      0.36248526     -0.59904497     -0.45310040      0.33800342       8       0       0       0       5     -0.60299317     -0.45170276      0.33809594
 H              -0.23273498     -0.30969412      1.29908335      0.14006857      0.15846790     -0.31611870       1       0       0       0       5      0.14069060      0.15954934     -0.31803230
 C               0.20554780      0.54297994     -0.41990800      0.04855323      0.58812704     -0.75886475       6       0       0       0       5      0.05341661      0.59005169     -0.76637589
 H               1.28758548      0.57379484     -0.47766852      0.35417206      0.32010648      0.10255103       1       0       0       0       5      0.34814083      0.32355285      0.10218655
 H              -0.19364994      1.52248579     -0.11789109      0.13694673     -0.28341427      0.29995057       1       0       0       0       5      0.13938302     -0.28928022      0.30248116
 H              -0.14233654      0.41413118     -1.45412449     -0.08069562     -0.33018623      0.33447792       1       0       0       0       5     -0.07863789     -0.33217090      0.34164454
 6
 energy=-3143.0620520982934 cutoff=4.00000000 nneightol=1.20000000 pbc="T T T" Lattice="200.00000000       0.00000000       0.00000000       0.00000000     200.00000000       0.00000000       0.00000000       0.00000000     200.00000000" Properties=species:S:1:pos:R:3:forces:R:3:Z:I:1:map_shift:I:3:n_neighb:I:1:force:R:3
 O              -0.21054214      0.53882473     -0.38563229      0.77290298      0.15234199      0.23748150       8       0       0       0       5      0.78711170      0.15080550      0.24750371
 H              -0.94784076      0.24307331     -0.90907867     -0.47224638     -0.31487480     -0.21209134       1       0       0       0       5     -0.48079557     -0.32125355     -0.21761652
 C               0.25647335     -0.53362396      0.42893459      0.86729435     -0.35517325     -1.42295144       6       0       0       0       5      0.87221456     -0.34945669     -1.43358302
 H              -0.35829625     -0.63558493      1.27807172     -0.79436706     -0.30865376      1.19882733       1       0       0       0       5     -0.79576477     -0.31132439      1.20426538
 H               1.27308707     -0.29150486      0.75254212     -0.21247907      0.10434926     -0.07752648       1       0       0       0       5     -0.21952366      0.10301642     -0.07871532
 H               0.31913465     -1.51083860     -0.11104769     -0.16110431      0.72201107      0.27626043       1       0       0       0       5     -0.16324226      0.72821271      0.27814578
 6
 energy=-3143.0610536149361 cutoff=4.00000000 nneightol=1.20000000 pbc="T T T" Lattice="200.00000000       0.00000000       0.00000000       0.00000000     200.00000000       0.00000000       0.00000000       0.00000000     200.00000000" Properties=species:S:1:pos:R:3:forces:R:3:Z:I:1:map_shift:I:3:n_neighb:I:1:force:R:3
 O              -0.63180652      0.20510271      0.21968276      0.68973550      0.08766948     -0.01963295       8       0       0       0       5      0.69922464      0.09208207     -0.01776881
 H              -1.17283891     -0.53644115     -0.02525479     -0.70870458     -0.45384602     -0.06419994       1       0       0       0       5     -0.71904269     -0.46201077     -0.06632231
 C               0.68183695     -0.16276266     -0.21389659     -0.63385308     -0.14524883      0.85375955       6       0       0       0       5     -0.63408736     -0.14557899      0.85976809
 H               0.70617764     -0.38519157     -1.25522695      0.11229397      0.22718218     -1.06114269       1       0       0       0       5      0.11268282      0.22891303     -1.06845984
 H               1.06219238     -1.04855470      0.28000311     -0.02951010     -0.30256487      0.44780701       1       0       0       0       5     -0.03108559     -0.30114606      0.45067134
 H               1.30923791      0.65377800      0.06193813      0.57003830      0.58680806     -0.15659151       1       0       0       0       5      0.57230818      0.58774072     -0.15788847
 6
 energy=-3143.0686969923281 cutoff=4.00000000 nneightol=1.20000000 pbc="T T T" Lattice="200.00000000       0.00000000       0.00000000       0.00000000     200.00000000       0.00000000       0.00000000       0.00000000     200.00000000" Properties=species:S:1:pos:R:3:forces:R:3:Z:I:1:map_shift:I:3:n_neighb:I:1:force:R:3
 O              -0.11524094      0.58081651     -0.34762301     -0.49544287      0.27193943     -0.78739115       8       0       0       0       5     -0.50565279      0.26742084     -0.79166206
 H              -1.00273166      0.47994896     -0.73796385      0.55411751      0.05197023      0.20796781       1       0       0       0       5      0.56306286      0.05475178      0.21196583
 C               0.17768465     -0.59212285      0.37605587     -0.51639839     -0.28095475     -0.15587468       6       0       0       0       5     -0.51591110     -0.28348914     -0.15759213
 H               0.25948320     -1.50577049     -0.24728723      0.31990542      0.53496639      0.17533999       1       0       0       0       5      0.32076741      0.53802224      0.17554156
 H              -0.61384059     -0.76825136      1.08471750     -0.35107645     -0.29910725      0.55321402       1       0       0       0       5     -0.34889562     -0.29705696      0.55378757
 H               1.06916810     -0.37030069      0.93775219      0.48889427     -0.27881405      0.00674400       1       0       0       0       5      0.48662923     -0.27964876      0.00795923
 6
 energy=-3143.0793526331740 cutoff=4.00000000 nneightol=1.20000000 pbc="T T T" Lattice="200.00000000       0.00000000       0.00000000       0.00000000     200.00000000       0.00000000       0.00000000       0.00000000     200.00000000" Properties=species:S:1:pos:R:3:forces:R:3:Z:I:1:map_shift:I:3:n_neighb:I:1:force:R:3
 O               0.50261355      0.35174086      0.32459667      0.14512284     -0.14677298      0.20084739       8       0       0       0       5      0.13839522     -0.15195092      0.20006266
 H               0.69045905     -0.11806804      1.14934141     -0.07065341      0.00011416     -0.30947703       1       0       0       0       5     -0.07193749      0.00082055     -0.31247027
 C              -0.52418972     -0.33823318     -0.38808519     -0.40397073      0.55110366      1.34571087       6       0       0       0       5     -0.40329007      0.55706678      1.35228020
 H              -0.14065778     -1.14123321     -0.98633015      0.23449954     -0.49194412     -0.37605523       1       0       0       0       5      0.23361381     -0.49233743     -0.37723874
 H              -0.98284909      0.42003147     -0.99951834     -0.21716362      0.06743953     -0.47032268       1       0       0       0       5     -0.21557200      0.06202518     -0.46715460
 H              -1.29939020     -0.71401976      0.30816529      0.31216486      0.02006026     -0.39070332       1       0       0       0       5      0.31879053      0.02437583     -0.39547925
 6
 energy=-3143.0497685913801 cutoff=4.00000000 nneightol=1.20000000 pbc="T T T" Lattice="200.00000000       0.00000000       0.00000000       0.00000000     200.00000000       0.00000000       0.00000000       0.00000000     200.00000000" Properties=species:S:1:pos:R:3:forces:R:3:Z:I:1:map_shift:I:3:n_neighb:I:1:force:R:3
 O               0.62362674      0.29628714      0.09478404     -0.54489290      0.10727620     -1.25870164       8       0       0       0       5     -0.54995248      0.11284481     -1.27602051
 H               0.93790899      0.00981557      0.93739374      0.23862719     -0.38638335      0.94925290       1       0       0       0       5      0.24010611     -0.39186629      0.96162692
 C              -0.64564952     -0.29075965     -0.14362990     -1.11904085      0.89738860     -0.13604171       6       0       0       0       5     -1.12862530      0.89856909     -0.13525091
 H              -0.67485869     -1.37103382     -0.18749800      0.36655552     -0.40118108      0.23611522       1       0       0       0       5      0.36801877     -0.40045538      0.23717027
 H              -1.05324095      0.05370970     -1.10312415      0.67291071      0.06379782      0.00134880       1       0       0       0       5      0.67960978      0.06411453      0.00741129
 H              -1.41594375      0.06882024      0.56009167      0.38584085     -0.28089818      0.20802592       1       0       0       0       5      0.39084312     -0.28320675      0.20506294
 6
 energy=-3143.0337832632049 cutoff=4.00000000 nneightol=1.20000000 pbc="T T T" Lattice="200.00000000       0.00000000       0.00000000       0.00000000     200.00000000       0.00000000       0.00000000       0.00000000     200.00000000" Properties=species:S:1:pos:R:3:forces:R:3:Z:I:1:map_shift:I:3:n_neighb:I:1:force:R:3
 O              -0.65718435      0.20850586     -0.03318273      0.18506133      0.83822392     -0.24545295       8       0       0       0       5      0.19503821      0.84484064     -0.24994670
 H              -1.19783107     -0.36642539      0.49912791     -0.03965001     -0.50179864      0.32400067       1       0       0       0       5     -0.04140303     -0.50974631      0.33170386
 C               0.70037524     -0.17385516     -0.00408918      0.41671055     -0.56756335      1.06964122       6       0       0       0       5      0.41694837     -0.56821772      1.07000391
 H               1.32634845      0.68497781     -0.24184760     -0.22223589     -0.05272922     -0.36114438       1       0       0       0       5     -0.22316910     -0.05573258     -0.36211123
 H               0.87860158     -1.01563265     -0.65328069      0.21498024     -0.10531908     -0.76088564       1       0       0       0       5      0.21630105     -0.10213523     -0.75937586
 H               1.07960682     -0.54117236      0.97148951     -0.55486621      0.38918637     -0.02615892       1       0       0       0       5     -0.56371550      0.39099119     -0.03027398
 6
 energy=-3143.0581159043950 cutoff=4.00000000 nneightol=1.20000000 pbc="T T T" Lattice="200.00000000       0.00000000       0.00000000       0.00000000     200.00000000       0.00000000       0.00000000       0.00000000     200.00000000" Properties=species:S:1:pos:R:3:forces:R:3:Z:I:1:map_shift:I:3:n_neighb:I:1:force:R:3
 O              -0.43285240      0.16750127      0.50964944     -0.90885521     -2.14073870     -0.40986524       8       0       0       0       5     -0.91760243     -2.17292552     -0.42423696
 H              -0.16372090      0.98230155      0.86607920      0.72272327      1.66549905      0.53578863       1       0       0       0       5      0.73416501      1.69098372      0.54458000
 C               0.42727659     -0.22592737     -0.54078767      0.46568030      1.42008003     -0.22598713       6       0       0       0       5      0.46562194      1.42918314     -0.22401140
 H               0.17806878     -1.21617049     -0.86588773     -0.18887531     -0.57816967      0.15167813       1       0       0       0       5     -0.18961308     -0.57520909      0.15360020
 H               1.48803041     -0.17482377     -0.24192793     -0.30457753     -0.18674232     -0.13064445       1       0       0       0       5     -0.30865883     -0.18701143     -0.13260724
 H               0.27746526      0.44187202     -1.40460918      0.21390397     -0.17992838      0.07903057       1       0       0       0       5      0.21608739     -0.18502082      0.08267540
 6
 energy=-3143.0347933084799 cutoff=4.00000000 nneightol=1.20000000 pbc="T T T" Lattice="200.00000000       0.00000000       0.00000000       0.00000000     200.00000000       0.00000000       0.00000000       0.00000000     200.00000000" Properties=species:S:1:pos:R:3:forces:R:3:Z:I:1:map_shift:I:3:n_neighb:I:1:force:R:3
 O              -0.56670903      0.15405587     -0.40562317      0.96396424      0.01166355      0.88709391       8       0       0       0       5      0.97032064      0.00805372      0.88755843
 H              -0.52676595     -0.45218922     -1.15493690      0.13181276     -0.03743115      0.13980889       1       0       0       0       5      0.13495749     -0.03502562      0.14514950
 C               0.57335661     -0.11827486      0.45546575     -0.81765355     -0.47888394      0.65995904       6       0       0       0       5     -0.82333976     -0.48043271      0.66614250
 H               1.51031173     -0.15442681     -0.05818931      0.57838307      0.12254856     -0.78064766       1       0       0       0       5      0.57463746      0.12305513     -0.78288478
 H               0.49744419     -1.09004609      0.99550454     -0.31838898      0.52081092     -0.36776908       1       0       0       0       5     -0.31846707      0.52785594     -0.37248200
 H               0.68305518      0.66047513      1.22930582     -0.53811805     -0.13870794     -0.53844458       1       0       0       0       5     -0.53810876     -0.14350645     -0.54348365
 6
 energy=-3143.0399404250479 cutoff=4.00000000 nneightol=1.20000000 pbc="T T T" Lattice="200.00000000       0.00000000       0.00000000       0.00000000     200.00000000       0.00000000       0.00000000       0.00000000     200.00000000" Properties=species:S:1:pos:R:3:forces:R:3:Z:I:1:map_shift:I:3:n_neighb:I:1:force:R:3
 O               0.60587118      0.34184494      0.03354408     -0.43237114      0.42294959     -0.68425596       8       0       0       0       5     -0.44581823      0.42326652     -0.69963364
 H               0.98681870      0.11529639      0.87639633      0.15829512     -0.21249912      0.46133050       1       0       0       0       5      0.15973318     -0.21699022      0.47284364
 C              -0.65115571     -0.33413375     -0.09117217      0.66428723      0.37243101      1.64242494       6       0       0       0       5      0.67700521      0.37993202      1.65605866
 H              -0.46109372     -1.36151655     -0.28008037     -0.02179473     -1.15797661     -0.42808768       1       0       0       0       5     -0.02278242     -1.16199410     -0.43037802
 H              -1.17974204      0.09906143     -0.91970914     -0.34138236      0.28925273     -0.11485273       1       0       0       0       5     -0.34305600      0.28995404     -0.11738458
 H              -1.20464260     -0.29788679      0.87731901     -0.02703464      0.28584293     -0.87655958       1       0       0       0       5     -0.02508174      0.28583173     -0.88150607
 6
 energy=-3143.0526880288403 cutoff=4.00000000 nneightol=1.20000000 pbc="T T T" Lattice="200.00000000       0.00000000       0.00000000       0.00000000     200.00000000       0.00000000       0.00000000       0.00000000     200.00000000" Properties=species:S:1:pos:R:3:forces:R:3:Z:I:1:map_shift:I:3:n_neighb:I:1:force:R:3
 O              -0.13652383     -0.19680916      0.64164367     -0.17031451     -0.17167823      0.64127637       8       0       0       0       5     -0.16885562     -0.17191415      0.63597317
 H               0.69214103     -0.36218367      1.11107700     -0.06097629      0.06549217     -0.38707087       1       0       0       0       5     -0.06362819      0.06749926     -0.39106535
 C               0.08865732      0.21687348     -0.68375855      1.18167859     -0.65561079     -0.69622702       6       0       0       0       5      1.18606133     -0.65618450     -0.69472981
 H               0.43555978     -0.63168336     -1.34468228     -0.20228670      0.71016394      0.64747530       1       0       0       0       5     -0.20510346      0.71422882      0.65230685
 H               0.86594531      1.02053355     -0.73782140     -0.85572747     -0.37324759     -0.13876193       1       0       0       0       5     -0.86133750     -0.37751465     -0.13888436
 H              -0.88284493      0.51329204     -1.06660489      0.10762639      0.42488100     -0.06669185       1       0       0       0       5      0.11286343      0.42388522     -0.06360050
 6
 energy=-3143.0594222804716 cutoff=4.00000000 nneightol=1.20000000 pbc="T T T" Lattice="200.00000000       0.00000000       0.00000000       0.00000000     200.00000000       0.00000000       0.00000000       0.00000000     200.00000000" Properties=species:S:1:pos:R:3:forces:R:3:Z:I:1:map_shift:I:3:n_neighb:I:1:force:R:3
 O              -0.22199824     -0.09947733      0.63744798     -0.36078751      0.18858786      0.72140635       8       0       0       0       5     -0.36073405      0.19658275      0.72795303
 H              -0.75268777     -0.90005935      0.66436892     -0.00248780     -0.08698917     -0.22561740       1       0       0       0       5     -0.00537727     -0.09264178     -0.22718072
 C               0.25114130      0.14226258     -0.65280697      1.30713660      1.01184847      0.06748683       6       0       0       0       5      1.31694926      1.01485306      0.06019685
 H               0.94452380     -0.61596228     -0.97579140      0.23415347     -0.51620659     -0.30340665       1       0       0       0       5      0.23473463     -0.51551702     -0.30367900
 H               0.82639595      1.08514983     -0.62563270     -0.19154257     -0.39553648      0.24682541       1       0       0       0       5     -0.19371322     -0.40105901      0.24960358
 H              -0.48674892      0.31480592     -1.40319608     -0.98647219     -0.20170460     -0.50669505       1       0       0       0       5     -0.99185935     -0.20221799     -0.50689374
 6
 energy=-3143.0390860475595 cutoff=4.00000000 nneightol=1.20000000 pbc="T T T" Lattice="200.00000000       0.00000000       0.00000000       0.00000000     200.00000000       0.00000000       0.00000000       0.00000000     200.00000000" Properties=species:S:1:pos:R:3:forces:R:3:Z:I:1:map_shift:I:3:n_neighb:I:1:force:R:3
 O              -0.07676548      0.64278674      0.24075440      0.05449196      0.35205604      0.15194090       8       0       0       0       5      0.05246196      0.35301333      0.14936147
 H              -0.35210746      1.20512632     -0.49571211      0.17369963     -0.31208258      0.08735426       1       0       0       0       5      0.17471117     -0.31490795      0.08768873
 C               0.10555553     -0.68846645     -0.20100565     -0.86882827     -0.26015298      0.30028430       6       0       0       0       5     -0.87098610     -0.26690325      0.30735208
 H              -0.52557597     -0.91110351     -1.04053492     -0.19873189      0.00331724     -0.82958912       1       0       0       0       5     -0.19523019      0.00748690     -0.82693577
 H              -0.29294997     -1.36745067      0.56229709      0.54090410      0.20475239      0.19373367       1       0       0       0       5      0.54392505      0.20889314      0.18808095
 H               1.13143417     -0.92664910     -0.45270448      0.29846396      0.01210938      0.09627599       1       0       0       0       5      0.29511812      0.01241784      0.09445254
 6
 energy=-3143.0578335318678 cutoff=4.00000000 nneightol=1.20000000 pbc="T T T" Lattice="200.00000000       0.00000000       0.00000000       0.00000000     200.00000000       0.00000000       0.00000000       0.00000000     200.00000000" Properties=species:S:1:pos:R:3:forces:R:3:Z:I:1:map_shift:I:3:n_neighb:I:1:force:R:3
 O              -0.04451644      0.07101017     -0.68965986     -0.04250342      0.73108810     -0.14012359       8       0       0       0       5     -0.04215181      0.73938719     -0.12945821
 H               0.21609938      0.98589120     -0.92944342     -0.21120843     -0.76539638      0.48910613       1       0       0       0       5     -0.21336240     -0.77516050      0.49229037
 C               0.03349568     -0.12340578      0.72425463      0.04492129     -0.49748227     -0.34027730       6       0       0       0       5      0.04528394     -0.49739087     -0.34608486
 H              -0.68052331      0.46843681      1.30448943      0.14365217      0.37569631     -0.18593294       1       0       0       0       5      0.14771942      0.37177710     -0.19241705
 H               1.07020392      0.05774237      1.06679548     -0.56909984     -0.29729617      0.16057312       1       0       0       0       5     -0.57628924     -0.30064850      0.15966250
 H              -0.29824094     -1.16880139      0.87586803      0.63423772      0.45338991      0.01665458       1       0       0       0       5      0.63880009      0.46203557      0.01600725
 6
 energy=-3143.0530058547924 cutoff=4.00000000 nneightol=1.20000000 pbc="T T T" Lattice="200.00000000       0.00000000       0.00000000       0.00000000     200.00000000       0.00000000       0.00000000       0.00000000     200.00000000" Properties=species:S:1:pos:R:3:forces:R:3:Z:I:1:map_shift:I:3:n_neighb:I:1:force:R:3
 O              -0.41024977     -0.38388861      0.39720421     -1.26521888      0.62160743      0.34677242       8       0       0       0       5     -1.28000483      0.63597013      0.34319260
 H              -1.29478104      0.04519746      0.34155415      0.87401470     -0.46693037      0.13464045       1       0       0       0       5      0.88736363     -0.47664763      0.13688852
 C               0.47001046      0.37160597     -0.39939504      1.21249017     -0.23255990     -0.59945223       6       0       0       0       5      1.22209999     -0.23271561     -0.60337219
 H               1.41559180     -0.23544851     -0.41540258     -0.77470738      0.82658556     -0.10524812       1       0       0       0       5     -0.78304341      0.83187546     -0.10799119
 H               0.70291648      1.40528354     -0.04277915     -0.27935501     -0.77073348      0.06572409       1       0       0       0       5     -0.28258493     -0.77790794      0.06576319
 H               0.08808498      0.45091273     -1.42955773      0.23277638      0.02203024      0.15756338       1       0       0       0       5      0.23616956      0.01942559      0.16551907
 6
 energy=-3143.0388755196163 cutoff=4.00000000 nneightol=1.20000000 pbc="T T T" Lattice="200.00000000       0.00000000       0.00000000       0.00000000     200.00000000       0.00000000       0.00000000       0.00000000     200.00000000" Properties=species:S:1:pos:R:3:forces:R:3:Z:I:1:map_shift:I:3:n_neighb:I:1:force:R:3
 O              -0.43126162      0.16254726      0.51027616     -0.45504467     -0.51204140      0.52487841       8       0       0       0       5     -0.45587466     -0.51736367      0.52630924
 H              -0.15086658      1.00222362      0.89508388      0.17266296     -0.17014174     -0.31009769       1       0       0       0       5      0.17501765     -0.17251714     -0.31365495
 C               0.42273503     -0.22027281     -0.53942630      0.13821017      1.64330477     -1.22257353       6       0       0       0       5      0.13958699      1.65164812     -1.22855758
 H               0.24448141     -1.22198377     -0.88265661     -0.63539471     -0.52138839      0.22924266       1       0       0       0       5     -0.63864063     -0.52182615      0.23412318
 H               1.47073331     -0.19690078     -0.26255292      0.32356667      0.23267663      0.10204298       1       0       0       0       5      0.31913561      0.23509871      0.10109558
 H               0.24436057      0.46110226     -1.42239129      0.45599958     -0.67240986      0.67650717       1       0       0       0       5      0.46077503     -0.67503987      0.68068452
 6
 energy=-3143.0328715103014 cutoff=4.00000000 nneightol=1.20000000 pbc="T T T" Lattice="200.00000000       0.00000000       0.00000000       0.00000000     200.00000000       0.00000000       0.00000000       0.00000000     200.00000000" Properties=species:S:1:pos:R:3:forces:R:3:Z:I:1:map_shift:I:3:n_neighb:I:1:force:R:3
 O               0.38782616     -0.22259891      0.53852538      0.07961319      0.18662714     -0.67151255       8       0       0       0       5      0.08328071      0.18766937     -0.67761821
 H               1.22463057     -0.33559699      0.07599483      0.38943011     -0.20819252      0.45893578       1       0       0       0       5      0.39715550     -0.21103165      0.46390129
 C              -0.45041072      0.22884362     -0.52201235     -0.54498855      0.84649721      0.52953416       6       0       0       0       5     -0.56002770      0.85551401      0.52946595
 H              -0.08926343      1.13874160     -1.00469646      0.23305252      0.31388441      0.27812962       1       0       0       0       5      0.23438442      0.30972937      0.28274927
 H              -1.42505727      0.48296374     -0.06644266      0.36576516     -0.47805502     -0.49713620       1       0       0       0       5      0.36769026     -0.47873679     -0.50081430
 H              -0.49971070     -0.47938680     -1.33332465     -0.52287243     -0.66076071     -0.09795132       1       0       0       0       5     -0.52248318     -0.66314432     -0.09768399
 6
 energy=-3143.0513555821608 cutoff=4.00000000 nneightol=1.20000000 pbc="T T T" Lattice="200.00000000       0.00000000       0.00000000       0.00000000     200.00000000       0.00000000       0.00000000       0.00000000     200.00000000" Properties=species:S:1:pos:R:3:forces:R:3:Z:I:1:map_shift:I:3:n_neighb:I:1:force:R:3
 O               0.07806924     -0.66760825      0.17421256      0.01496074      0.03891468     -1.01542025       8       0       0       0       5      0.00915024      0.04670822     -1.03286979
 H               0.58482094     -0.71389067      0.97321086      0.43000109      0.18325076      0.73032756       1       0       0       0       5      0.43703031      0.18590041      0.74148212
 C              -0.10322629      0.68898499     -0.22769941     -1.54449264     -0.45172538      0.38467974       6       0       0       0       5     -1.55011035     -0.45832534      0.38697306
 H              -0.48222699      0.63742607     -1.25771887      0.05770996      0.16197643      0.39488342       1       0       0       0       5      0.05836255      0.16201462      0.40277152
 H               0.75863791      1.33092738     -0.20733763      0.77653286     -0.01841116      0.06606656       1       0       0       0       5      0.77648500     -0.02243997      0.06821389
 H              -0.87048500      1.13346603      0.43960216      0.26528747      0.08599467     -0.56053704       1       0       0       0       5      0.26908226      0.08614206     -0.56657079
 6
 energy=-3143.0447408635459 cutoff=4.00000000 nneightol=1.20000000 pbc="T T T" Lattice="200.00000000       0.00000000       0.00000000       0.00000000     200.00000000       0.00000000       0.00000000       0.00000000     200.00000000" Properties=species:S:1:pos:R:3:forces:R:3:Z:I:1:map_shift:I:3:n_neighb:I:1:force:R:3
 O               0.43914578      0.16206332     -0.51616410     -0.09085971      0.08490452      0.08519865       8       0       0       0       5     -0.09610928      0.08565689      0.09445220
 H               0.07891559     -0.12122139     -1.36948062     -0.24474333     -0.02419768      0.48618433       1       0       0       0       5     -0.24609141     -0.02571012      0.48866647
 C              -0.42633287     -0.14575248      0.58173385      0.08758412     -0.79359882     -0.49772601       6       0       0       0       5      0.08718313     -0.79781391     -0.50681884
 H              -0.76083843     -1.20337703      0.57465137      0.65554805      0.25426258      0.19373007       1       0       0       0       5      0.65874755      0.26129073      0.19473117
 H              -1.36907507      0.38911231      0.58199715     -0.04164725      0.71689921     -0.09686529       1       0       0       0       5     -0.03803573      0.71649421     -0.09802416
 H               0.16000398      0.09961249      1.47467326     -0.36588189     -0.23826929     -0.17052175       1       0       0       0       5     -0.36569426     -0.23991779     -0.17300684
 6
 energy=-3143.0505174012055 cutoff=4.00000000 nneightol=1.20000000 pbc="T T T" Lattice="200.00000000       0.00000000       0.00000000       0.00000000     200.00000000       0.00000000       0.00000000       0.00000000     200.00000000" Properties=species:S:1:pos:R:3:forces:R:3:Z:I:1:map_shift:I:3:n_neighb:I:1:force:R:3
 O               0.20334460     -0.61546907      0.22858798      0.49350889     -0.53117710     -0.81732239       8       0       0       0       5      0.49874916     -0.53583210     -0.82657665
 H              -0.00332896     -0.61734088      1.15666501     -0.07904857      0.02469905      0.57431455       1       0       0       0       5     -0.08181345      0.02508771      0.58309781
 C              -0.19006750      0.62235166     -0.29502213     -0.57329228      1.62443338      1.30213324       6       0       0       0       5     -0.57605979      1.63405716      1.30598453
 H               0.50144479      1.46277697     -0.02885475     -0.28551331     -0.68808896     -0.16154859       1       0       0       0       5     -0.28805995     -0.69127094     -0.16123312
 H              -1.18024051      0.89983869      0.12288421      0.33832583      0.02144660     -0.37827615       1       0       0       0       5      0.34312149      0.02152929     -0.38222079