6
energy=-3143.0417489241 Properties=species:S:1:pos:R:3:forces:R:3 pbc="T T T" Lattice="200.000 0.000 0.000 0.000 200.000 0.000 0.000 0.000 200.000"
O   -0.1403156743    0.2567101723    0.6398453218    0.3680241343    0.0383171533   -0.4355119978
H    0.7402993837    0.4898528017    0.9809498719   -0.4917661964   -0.1350785710   -0.0529199919
C    0.0919679667   -0.2752168746   -0.6787491749   -0.4865607406   -1.2402390649    1.4417225506
H    0.8293651338    0.2834681668   -1.1757689170    1.1936527290    0.6320610220   -0.7814986910
H   -0.8043826553   -0.2220793287   -1.2642157736   -0.6809922041    0.1856938259   -0.0322478067
H    0.3662630159   -1.3468730607   -0.6101412494    0.0976427920    0.5192461491   -0.1395445776
6
energy=-3143.0342520240 Properties=species:S:1:pos:R:3:forces:R:3 pbc="T T T" Lattice="200.000 0.000 0.000 0.000 200.000 0.000 0.000 0.000 200.000"
O    0.1723984460   -0.6817852265    0.1299583220   -1.2724709307    1.1749037292   -0.0335647258
H    1.1189807025   -0.6731439576    0.1311282401    0.8647803281   -0.0738246048   -0.0270125260
C   -0.2381996826    0.6993742404   -0.1329418040   -0.0139081265   -0.9935005606   -0.2463014167
H   -0.4699421850    0.8128521503   -1.2059450585   -0.1576173772   -0.0300094041    0.4648056067
H    0.5553320979    1.3926502450    0.0988008132    0.3446178378    0.2387068917    0.1883533752
H   -1.1026927709    0.9568237881    0.4971411813    0.2345982685   -0.3162760514   -0.3462797990
6
energy=-3143.0858359681 Properties=species:S:1:pos:R:3:forces:R:3 pbc="T T T" Lattice="200.000 0.000 0.000 0.000 200.000 0.000 0.000 0.000 200.000"
O   -0.6292521399   -0.2850467307    0.0798043214   -0.0977980867    0.6480311733    0.2540790044
H   -1.1664733296    0.3805089739    0.5359307044    0.1287634270   -0.1859036279   -0.1298360913
C    0.6707964690    0.2584844488   -0.1078441521    0.8092578655   -1.0690786578   -0.1333703300
H    1.2085557278    0.4998767265    0.8222226306   -0.3799442837   -0.0827401628   -0.0108459424
H    0.7247478517    1.1352585230   -0.7529702711   -0.3184671456    0.0477016805   -0.1408265297
H    1.2289494270   -0.5707954779   -0.5869525945   -0.1418117765    0.6419885662    0.1607998890
6
energy=-3142.9814177982 Properties=species:S:1:pos:R:3:forces:R:3 pbc="T T T" Lattice="200.000 0.000 0.000 0.000 200.000 0.000 0.000 0.000 200.000"
O   -0.6152190320    0.0561321401    0.3477295823    1.0363238296   -2.2520032010   -1.2947577688
H   -0.6985726167    0.9377968233    0.6156137420   -0.0278090539    2.1636024971    0.5852057487
C    0.6298992297   -0.1158092128   -0.3713583267    0.3989257113    1.2648110996    0.9368617248
H    1.5350020891    0.0633622664    0.2643173402   -0.7978071996   -0.6420867824   -0.0553702534
H    0.8148245346    0.5884930427   -1.1890059315   -0.7268581168    0.0916346377   -0.1545161124
H    0.6090948196   -1.1007228102   -0.7858122954    0.1172243151   -0.6259587653   -0.0174233390
6
energy=-3142.9696328462 Properties=species:S:1:pos:R:3:forces:R:3 pbc="T T T" Lattice="200.000 0.000 0.000 0.000 200.000 0.000 0.000 0.000 200.000"
O   -0.0217988171   -0.3492009249    0.5939100465   -0.1965161141   -1.0644948948   -0.8308052542
H    0.4349020659    0.1899474950    1.2025637202    0.8246798576    0.9286979575    1.2847489777
C   -0.0051850441    0.3212136763   -0.6486861792   -0.2294606898    1.9220889890    0.9867277601
H    0.9658923500    0.6377321435   -1.0371925736    0.3671535587   -0.2585074728    0.3878936210
H   -0.6016951468    1.2708154962   -0.5413231271    0.1762234238   -0.9740347371   -0.6247004673
H   -0.3912664442   -0.3827185159   -1.3222571728   -0.9420800362   -0.5537498418   -1.2038646373
6
energy=-3142.9940276633 Properties=species:S:1:pos:R:3:forces:R:3 pbc="T T T" Lattice="200.000 0.000 0.000 0.000 200.000 0.000 0.000 0.000 200.000"
O   -0.5674897605    0.2889397631    0.2151410412   -1.2617144627    1.1255807109    1.0261787700
H   -1.3784295036   -0.2100064826    0.0401088269    0.7578234571   -0.2925745922   -0.2456113326
C    0.6347375380   -0.2709558801   -0.2068008507   -0.4833427476    0.5985199503   -0.7742142410
H    0.7721144415   -1.2486167224    0.1699918540    0.4338366668   -1.1692303325    0.5618092224
H    1.4166122834    0.4046663818    0.1212739754    0.1474023836   -0.0938663554    0.1176068953
H    0.6347156451   -0.3040803649   -1.2823713184    0.4059941886   -0.1684298953   -0.6857693141
6
energy=-3143.0210793185 Properties=species:S:1:pos:R:3:forces:R:3 pbc="T T T" Lattice="200.000 0.000 0.000 0.000 200.000 0.000 0.000 0.000 200.000"
O   -0.5796608846    0.1283233170    0.3597156644   -0.1560865423   -1.8358721803   -0.6470829504
H   -0.4493276598    0.9240961711    0.8227519383    0.3656648899    1.6519488162    0.8686601231
C    0.5978740603   -0.1813852702   -0.3922758594   -2.1896385181    0.6659800458   -1.2594791455
H    1.4800081179   -0.1226012329    0.1740232887    1.2780435401    0.0223639712    0.8020634041
H    0.6217081519    0.5019248325   -1.2594630951    0.4502593324   -0.2607792997    0.2299090902
H    0.4251073887   -1.1790786636   -0.7732161898    0.2517572980   -0.2436413532    0.0059294786
6
energy=-3143.0269692502 Properties=species:S:1:pos:R:3:forces:R:3 pbc="T T T" Lattice="200.000 0.000 0.000 0.000 200.000 0.000 0.000 0.000 200.000"
O   -0.1502956728    0.2933993612    0.6232865068    1.0404710193   -0.0240634705   -0.2979595111
H    0.7412633876    0.5691330692    0.9373228017   -0.9845659764   -0.2500953368   -0.1388061567
C    0.0928992925   -0.3161900969   -0.6606773189    1.1039268785    0.8971314932    0.7789023908
H    0.7666226324    0.3087625018   -1.2643538075   -0.6213868293    0.1114568161   -0.1857920420
H   -0.8414322601   -0.5218548853   -1.1161529079   -0.8778374194    0.2049267074   -0.5429208687
H    0.6124214923   -1.2458531497   -0.5784754691    0.3393923274   -0.9393562093    0.3865761877
6
energy=-3142.9789648822 Properties=species:S:1:pos:R:3:forces:R:3 pbc="T T T" Lattice="200.000 0.000 0.000 0.000 200.000 0.000 0.000 0.000 200.000"
O    0.4585800464    0.4442019924   -0.1974965688    1.5927661308    2.3753899367    0.3713825095
H    0.4869931266    1.2152622404    0.4210390319   -0.3083652806   -1.1380125098   -0.7588945788
C   -0.4688674508   -0.4974964145    0.1590884591   -1.2662015523   -0.8431912875    1.5749761525
H   -1.4041011024   -0.3480107031   -0.3716471614   -0.2393337267   -0.2126801266   -0.2724649644
H   -0.7396929667   -0.5270031533    1.2454705254    0.3776554875    0.2266422463   -0.6315899958
H   -0.0358540252   -1.4635100750   -0.0554148935   -0.1565210588   -0.4081482590   -0.2834086088
6
energy=-3142.9882848908 Properties=species:S:1:pos:R:3:forces:R:3 pbc="T T T" Lattice="200.000 0.000 0.000 0.000 200.000 0.000 0.000 0.000 200.000"
O    0.5485214197    0.3128072182    0.3256776311   -0.8147893372   -0.2698645505   -0.8972487355
H    0.7012390053   -0.2246346396    1.1071676040   -0.0263424965   -0.0909229563    0.1128400697
C   -0.5654441809   -0.2775948787   -0.3741984901   -0.2610976023   -0.0717260702   -0.6359948101
H   -1.5299277173   -0.1534008397    0.1367281263    0.2307153882    0.5267686833   -0.0550992591
H   -0.4996467898   -1.3479786481   -0.5192981501    0.5960043828   -0.5632973770    0.3178346542
H   -0.6412749661    0.0682027566   -1.4355755166    0.2755096650    0.4690427850    1.1576680807
6
energy=-3142.9750851372 Properties=species:S:1:pos:R:3:forces:R:3 pbc="T T T" Lattice="200.000 0.000 0.000 0.000 200.000 0.000 0.000 0.000 200.000"
O   -0.1369038239    0.6740700726    0.0006489729    0.5092836378    0.8439595332   -0.1205811477
H   -0.8465664459    0.8806498728   -0.6239006057    0.2103774465   -0.5183899717    0.1079374898
C    0.1889072861   -0.7095466192    0.0423958943   -0.6472644703    0.7216932844   -0.2837104563
H   -0.6981369313   -1.1877322158    0.4323663873    0.2793951164   -0.8405847029    0.7822278559
H    1.1255852550   -0.7944170473    0.6085311830   -0.6635338981   -0.1905650383    0.1381932056
H    0.3413552268   -1.1439921912   -0.9324961193    0.3117421677   -0.0161136189   -0.6240664332
6
energy=-3143.0231998474 Properties=species:S:1:pos:R:3:forces:R:3 pbc="T T T" Lattice="200.000 0.000 0.000 0.000 200.000 0.000 0.000 0.000 200.000"
O   -0.5738598725    0.3746450488   -0.0033945645   -0.7599744422   -0.0138731595    0.0121870299
H   -0.5107405138    1.0792409918   -0.6584392241    0.3404845321   -0.2419012305   -0.0226761031
C    0.5750100139   -0.4265874142    0.0458527103    0.8999273110   -0.2104026433   -1.3598200534
H    0.4712144710   -1.0972013703    0.8816481180   -0.0821241264   -0.2490036464    0.2063798950
H    1.4663072531    0.1648445881    0.1675699724    0.4970914657    0.4541560966    0.5261423625
H    0.8310782246   -1.0109233097   -0.8832806219   -0.8954047402    0.2610245830    0.6377863549
6
energy=-3143.0138567364 Properties=species:S:1:pos:R:3:forces:R:3 pbc="T T T" Lattice="200.000 0.000 0.000 0.000 200.000 0.000 0.000 0.000 200.000"
O   -0.5978876840    0.0011662902    0.3347054393   -0.5408932966   -0.8046483914   -0.2092770142
H   -0.6930949561    0.8511353566    0.7362171713   -0.0647835769    0.8634418117    0.2686725870
C    0.6082149802   -0.0575098740   -0.3668719560    1.2299453955    1.2459268597    0.2822582971
H    1.3845558810    0.6186852320    0.0408852186   -0.2585655797   -0.4095597947    0.2953935499
H    0.5783774479    0.2518324496   -1.3993674929   -0.6779274489   -0.0296119115   -0.6555393093
H    0.9737760576   -1.0548695493   -0.3193297147    0.3122239925   -0.8655490880    0.0184924038
6
energy=-3142.9925699766 Properties=species:S:1:pos:R:3:forces:R:3 pbc="T T T" Lattice="200.000 0.000 0.000 0.000 200.000 0.000 0.000 0.000 200.000"
O   -0.2624640284   -0.0112408633   -0.6235293437   -0.8995257046   -0.9829940038   -1.1666566580
H   -0.6659609054   -0.8972673886   -0.6441600629    0.0796265566    0.4987966214   -0.4658890696
C    0.2967379919    0.0630144177    0.6454457502   -1.0524672733    1.3745236792    0.8174607136
H    1.1044743514   -0.6047205003    0.7332552066    1.1929065948   -1.0133433078    0.4464211893
H   -0.4922287575   -0.1589005482    1.4080386399    0.8750765686    0.4246794251   -0.1648401208
H    0.6842372962    1.0884413803    0.7098826017   -0.1956167421   -0.3016624141    0.5335034314
6
energy=-3143.0104425510 Properties=species:S:1:pos:R:3:forces:R:3 pbc="T T T" Lattice="200.000 0.000 0.000 0.000 200.000 0.000 0.000 0.000 200.000"
O   -0.2061001313    0.6510649879   -0.0811817701   -0.1491502197    0.6660489514    0.0393635923
H   -0.7284768309    0.6683588944   -0.8917747853    0.0468028228   -0.0736600542    0.1973959457
C    0.2477829838   -0.6710411762    0.1452888146   -0.6485459082    0.0088116854   -1.2252217644
H   -0.4966689387   -1.2372487511    0.7093253799    0.4457300767    0.0122235396    0.5818406886
H    1.2462837932   -0.5925793221    0.5595222726   -0.1128200151   -0.3555691954    0.4323176590
H    0.2979876925   -1.1776641787   -0.8196341586    0.4179837578   -0.2578549268   -0.0256961211
6
energy=-3143.0078870209 Properties=species:S:1:pos:R:3:forces:R:3 pbc="T T T" Lattice="200.000 0.000 0.000 0.000 200.000 0.000 0.000 0.000 200.000"
O    0.3595103930    0.6173539074    0.0997789577   -1.0836598992   -1.3314767242    0.0846448361
H   -0.3074904841    1.1472339047    0.5580532491    0.3036293082    0.0825231616    0.0138577328
C   -0.3223168473   -0.6656470726   -0.1252811261   -0.0001666075    0.7713808851    0.5376891876
H   -1.3790748686   -0.5415357885   -0.3422880309   -0.2619316682    0.3591939369    0.0803454371
H   -0.2633776829   -1.3892976857    0.7094910039    0.3841341537    0.5414676811   -0.2094976149
H    0.0836535915   -1.0846618631   -1.0163325092    0.6579952273   -0.4230889406   -0.5070400930
6
energy=-3142.9567146217 Properties=species:S:1:pos:R:3:forces:R:3 pbc="T T T" Lattice="200.000 0.000 0.000 0.000 200.000 0.000 0.000 0.000 200.000"
O    0.3017228216    0.3350009713    0.5104375613    2.3528578153   -0.9976945444   -0.2374475652
H   -0.3896612474    0.8051248117    0.8825874910   -1.9219840880    1.5282304083    1.4751186121
C   -0.2611510495   -0.3813743386   -0.5433908397   -1.1892381446    0.7710738954   -0.4436320564
H   -0.6658837907   -1.3360683665   -0.2423207048    0.1616776637   -0.5527954483    0.0462623768
H    0.4735169405   -0.4411693092   -1.3094771911    0.5961313953   -0.5577710475   -0.6555835323
H   -1.0957707895    0.1986395621   -0.9586265817    0.0005553583   -0.1910427493   -0.1847173208
6
energy=-3142.9299784825 Properties=species:S:1:pos:R:3:forces:R:3 pbc="T T T" Lattice="200.000 0.000 0.000 0.000 200.000 0.000 0.000 0.000 200.000"
O   -0.0669131741    0.5485146600    0.3922472097   -0.6981702598    0.4780092508    1.3866052939
H    0.1126861600    1.3970588533   -0.0236809860    0.1604635887   -0.5379247007   -0.6179549205
C    0.0503620774   -0.6137930372   -0.3684276716    1.1395484870   -0.1969053791   -1.6492980087
H   -0.1176054616   -0.4460452862   -1.4592707408   -0.4693312628   -0.0856527086    0.6792633942
H   -0.6471070368   -1.3896728946    0.0150537133    0.6014067851    0.6092399086   -0.2089144887
H    1.1141209913   -0.9547102953   -0.3686096775   -0.7339173381   -0.2667663710    0.4102987298
6
energy=-3142.9223658524 Properties=species:S:1:pos:R:3:forces:R:3 pbc="T T T" Lattice="200.000 0.000 0.000 0.000 200.000 0.000 0.000 0.000 200.000"
O   -0.6322219397   -0.0949014911    0.2409545292    0.5941465035   -3.5212129443   -1.1035499547
H   -0.8926721247    0.6835189915    0.6143008236   -1.1168142769    3.3584878131    1.5836536263
C    0.6547478505    0.0448947611   -0.2572677974    1.1539847181    0.4047718861   -1.4695701711
H    1.4113906245    0.4493169708    0.4117063397   -0.0721107073   -0.3575582010    0.7256430133
H    0.7168047572    0.7404946020   -1.0997759574   -0.3887950498    0.1365019339   -0.2324462550
H    0.9986389058   -0.9017838111   -0.6856328985   -0.1704111875   -0.0209904878    0.4962702553
6
energy=-3142.9299156786 Properties=species:S:1:pos:R:3:forces:R:3 pbc="T T T" Lattice="200.000 0.000 0.000 0.000 200.000 0.000 0.000 0.000 200.000"
O   -0.2479401459   -0.5180046463   -0.3845851267   -0.5357536610   -0.5702794653   -0.4593939484
H   -1.2156887398   -0.5330648428   -0.1812600931    1.3005597206    0.0973234610   -0.2489913051
C    0.3180076425    0.5340800005    0.3834309783   -1.1053852083    0.3248779347   -0.0379052625
H   -0.0389067993    0.3313117549    1.3952919543    0.2556442921    0.9896289932    0.2715887324
H   -0.0017772450    1.4929466735   -0.0686794361   -0.0228427106   -0.1412265934    0.7924366789
H    1.4028814065    0.5677172549    0.3907409065    0.1077770530   -0.7003248444   -0.3177354096
6
energy=-3142.9281890890 Properties=species:S:1:pos:R:3:forces:R:3 pbc="T T T" Lattice="200.000 0.000 0.000 0.000 200.000 0.000 0.000 0.000 200.000"
O    0.2116135673    0.3793993807   -0.5677561773    0.7094059814   -0.9904471182    0.2674338294
H    0.7940543913   -0.2159927175   -1.1191943253   -0.9685068649    0.7675715384    1.1216386952
C   -0.2561086600   -0.3563005349    0.6272445561    1.1937226630    1.7829856128   -1.0122721862
H   -0.9913416053    0.3262874077    1.0949479839    0.4997422733   -0.6640254931   -0.1313026487
H    0.5644870724   -0.6464728572    1.3056765813   -0.2478379081    0.5185462947   -0.1241225854
H   -0.6746387852   -1.2408848290    0.2570995784   -1.1865261448   -1.4146308346   -0.1213751044
6
energy=-3142.9679708836 Properties=species:S:1:pos:R:3:forces:R:3 pbc="T T T" Lattice="200.000 0.000 0.000 0.000 200.000 0.000 0.000 0.000 200.000"
O   -0.3653780945    0.5660199259    0.1750888631   -0.1541741556   -0.3756608255    1.0642922918
H   -0.0171737544    0.7102115466    1.0679971087   -0.3996137385    0.4599858163   -0.2170386610
C    0.3514078706   -0.5998365011   -0.2285203934    0.3046520931    1.2945438530   -2.1316817348
H    1.2362210055   -0.1787883100   -0.7622105476   -0.2469020265   -1.0023924644    0.1696228872
H   -0.2753309572   -1.1602031043   -0.9508433956    0.4236890361    0.1925941530    0.5472171824
H    0.6690666202   -1.2087869409    0.5886853298    0.0723487915   -0.5690705325    0.5675885485
6
energy=-3142.9134354837 Properties=species:S:1:pos:R:3:forces:R:3 pbc="T T T" Lattice="200.000 0.000 0.000 0.000 200.000 0.000 0.000 0.000 200.000"
O   -0.4510973471    0.4836740978    0.2369912283    0.8343425782    0.3333785166   -0.2323362118
H   -0.6999353049    0.2315645231    1.1345866441    0.2495044973   -0.1209647563   -0.1199728246
C    0.4916734231   -0.4727072391   -0.2897857132   -1.0107593489   -0.6541586268   -0.5222887928
H    0.0119696762   -1.4466464744   -0.1012939073    0.9087245982   -0.1572445673    0.2086044136
H    1.5691974845   -0.4195262642    0.0600669462   -1.4162660564    0.1544945151   -0.1980742027
H    0.4208784468   -0.4106485132   -1.4023564175    0.4344537316    0.4444944044    0.8640671041
6
energy=-3142.9399201624 Properties=species:S:1:pos:R:3:forces:R:3 pbc="T T T" Lattice="200.000 0.000 0.000 0.000 200.000 0.000 0.000 0.000 200.000"
O   -0.5573969762    0.2044784170    0.3650645347    2.2476575221   -0.9194574120    1.8320417506
H   -1.1772023579    0.4677176363   -0.2438827046   -2.3234089118    1.0987821006   -2.2480185050
C    0.6155755787   -0.2236542471   -0.3381651651   -0.4482549002   -0.1496119898    0.3727673058
H    1.3408469507    0.5994613292   -0.4010795946    0.0925175546   -0.4374871194    0.3007625279
H    0.4186298071   -0.5491090023   -1.3647638828   -0.2199044128   -0.0265877798    0.1120085749
H    0.9308571230   -1.0989739580    0.2441184707    0.6513931481    0.4343632288   -0.3695616541
6
energy=-3142.9246180028 Properties=species:S:1:pos:R:3:forces:R:3 pbc="T T T" Lattice="200.000 0.000 0.000 0.000 200.000 0.000 0.000 0.000 200.000"
O   -0.5197176464    0.2730395170    0.3604630924    0.6759338153   -0.1450765635    1.4336477435
H   -1.1347764773    0.5983049734   -0.2782210780   -0.5253237232    0.3346393857   -0.6966450813
C    0.5751731452   -0.3049065415   -0.3202597488    0.2020506712    1.6128346209   -2.1012270156
H    1.2542908007    0.5212414137   -0.8239641545   -1.0084864936   -1.6302898416    1.2132342522
H    0.1388609596   -0.8739450672   -1.1552170264    0.6627198868   -0.3280409061    0.1425260290
H    1.1380555108   -0.9466667891    0.3514763685   -0.0068941565    0.1559327903    0.0084645865
6
energy=-3142.9305743302 Properties=species:S:1:pos:R:3:forces:R:3 pbc="T T T" Lattice="200.000 0.000 0.000 0.000 200.000 0.000 0.000 0.000 200.000"
O    0.1656164594   -0.6800062565    0.1317052137   -3.5362215030    0.9428945617   -0.3158888432
H    1.0730264624   -0.6594118130    0.2152681320    3.1022259420   -0.0826661150    0.2884063195
C   -0.2314511272    0.6986390664   -0.1338350132    0.0584668902   -1.3083229101   -1.3950184583
H   -0.4509783972    0.8138901048   -1.2282352780   -0.1638908694   -0.1551588882    0.9512501334
H    0.5997524769    1.3418057429    0.0475385256    0.4978010902    0.7053976313    0.4742502977
H   -1.0928785354    0.9734182649    0.4694662749    0.0416184500   -0.1021442798   -0.0029999634
6
energy=-3142.9363341099 Properties=species:S:1:pos:R:3:forces:R:3 pbc="T T T" Lattice="200.000 0.000 0.000 0.000 200.000 0.000 0.000 0.000 200.000"
O   -0.0956399790    0.5661708530    0.3953673517   -0.3482513211    0.5871788134    0.3424797083
H   -0.9384376913    1.0458394793    0.1692445568    1.2494991507   -1.2700422665   -0.0595251564
C    0.1506695667   -0.6244200239   -0.3937966735   -0.9483118765    1.5809848211    0.5830789320
H   -0.5040274575   -1.4216165817   -0.0209281524    0.3823904314   -0.1248111269   -0.4516220171
H    1.2113505679   -0.8532180308   -0.3263271340   -0.1072062680   -0.1195095118    0.3477324724
H   -0.0460468089   -0.3180259655   -1.4057263631   -0.2281201165   -0.6538007292   -0.7621439392
6
energy=-3142.9475078397 Properties=species:S:1:pos:R:3:forces:R:3 pbc="T T T" Lattice="200.000 0.000 0.000 0.000 200.000 0.000 0.000 0.000 200.000"
O   -0.5263971984    0.4355813453   -0.1670468399    1.0408464004   -0.0787996898    0.0732173102
H   -1.2884742235   -0.1165451462   -0.1992294680   -1.0054644187   -0.5922834820   -0.1581326264
C    0.5892364666   -0.4076997203    0.1675242985   -1.4978152840   -0.7993843144    0.5650914929
H    1.1940459272   -0.6226064294   -0.6747069965    0.8333069378    0.2750612646   -0.9362096930
H    0.3477473493   -1.4134343614    0.5773713087   -0.5140437785    0.6214706473   -0.1790264406
H    1.0815657501    0.0961400233    0.9521132472    1.1431701431    0.5739355743    0.6350599569
6
energy=-3142.9261126698 Properties=species:S:1:pos:R:3:forces:R:3 pbc="T T T" Lattice="200.000 0.000 0.000 0.000 200.000 0.000 0.000 0.000 200.000"
O   -0.0695068777    0.6430538577    0.2176362847   -0.3482826885    0.4958408810    1.5939622081
H   -0.3329034653    1.2509665653   -0.4750584737   -0.0184126995   -0.4794819788   -0.4227295003
C    0.0883319497   -0.6958857085   -0.1782572454   -0.7691162573   -0.5218151955   -0.8545015711
H   -0.5969963330   -0.9221814478   -1.0371479768    0.7960022850   -0.0791514167    0.5540501467
H   -0.1524001373   -1.4490564355    0.6262690057    0.1556376277    1.2497804294   -0.4846437259
H    1.1331128002   -0.7956369179   -0.4448008004    0.1841717327   -0.6651722052   -0.3861370432
6
energy=-3142.9126146794 Properties=species:S:1:pos:R:3:forces:R:3 pbc="T T T" Lattice="200.000 0.000 0.000 0.000 200.000 0.000 0.000 0.000 200.000"
O    0.3417364895    0.3318256148    0.5134527157   -1.9325590361   -0.5666495816    0.5468865385
H    1.0357517640    0.8192533595    0.1217131051    1.1625115252    0.7752416539   -0.8597985583
C   -0.3950108719   -0.3680560350   -0.5100976130    0.7309975932   -1.6203993212    2.5588150209
H   -0.6850383474    0.1970212352   -1.3263758073   -0.3030312695    1.5873858400   -1.7255687612
H   -1.3538333599   -0.7218636092   -0.0407321677    1.2336601256   -0.0174624197   -0.3331759137
H    0.2852185110   -1.1761801232   -0.8270343933   -0.8915794526   -0.1581161713   -0.1871578121
6
energy=-3142.9521305100 Properties=species:S:1:pos:R:3:forces:R:3 pbc="T T T" Lattice="200.000 0.000 0.000 0.000 200.000 0.000 0.000 0.000 200.000"
O   -0.1319601126   -0.6075662357   -0.2701390726   -0.2005023527   -1.0899935552   -0.4779285182
H   -1.0912118284   -0.6207226700   -0.2184796281   -0.1375951670   -0.4278069152   -0.2314481527
C    0.1934558324    0.6152150500    0.2640078156   -0.9491449140    1.8946532594    2.1196525706
H   -0.0948850053    1.4529609716   -0.3871487278   -0.2556088109   -0.0458751687    0.2413535854
H    1.2348464200    0.7430725803    0.4298582436    1.1450994991   -0.4489686385   -0.1216399280
H   -0.2591930730    0.7385323546    1.3181487287    0.3977517455    0.1179910182   -1.5299895572
6
energy=-3142.9127530493 Properties=species:S:1:pos:R:3:forces:R:3 pbc="T T T" Lattice="200.000 0.000 0.000 0.000 200.000 0.000 0.000 0.000 200.000"
O   -0.6447575531   -0.2027745791    0.1363561979    1.0234230614   -1.8817838587    0.0172459328
H   -1.1406032889    0.5640952349    0.2849828263   -1.1395094062    1.8056288058    0.4373030284
C    0.6812442210    0.1705677999   -0.1351678519    1.1535383745   -2.3664867200   -1.9208219493
H    1.3732613403    0.2222394523    0.6884087501   -0.1830723289    0.2769643953    0.8891903834
H    0.7330785256    1.0522112644   -0.7278570706    0.0765006091    1.0103155765   -0.3681094949
H    1.1516876547   -0.6521021464   -0.7994468999   -0.9308803100    1.1553618010    0.9451926139
6
energy=-3142.9360862686 Properties=species:S:1:pos:R:3:forces:R:3 pbc="T T T" Lattice="200.000 0.000 0.000 0.000 200.000 0.000 0.000 0.000 200.000"
O    0.3433158087    0.1411686850    0.5662585681    0.7898666040    0.4127299652    1.3102522661
H   -0.2572064585   -0.0404764416    1.3094987784    0.3469333735    0.0484066770   -0.5391315766
C   -0.2999111928   -0.1314779658   -0.6203120123   -2.4527112420    0.2470686340   -1.7061841846
H    0.0287841376    0.5309463426   -1.4897732711   -0.1414759904   -0.7905638872    1.4336713976
H   -1.4165408025    0.0141616782   -0.4932467158    1.0023173882    0.1609886080   -0.3899900987
H   -0.2312339534   -1.1789094885   -0.9238441226    0.4550698667   -0.0786305112   -0.1086178038
6
energy=-3142.9359862123 Properties=species:S:1:pos:R:3:forces:R:3 pbc="T T T" Lattice="200.000 0.000 0.000 0.000 200.000 0.000 0.000 0.000 200.000"
O    0.4335556267    0.5464678103   -0.1908926765   -0.7230210021   -1.8230439173    1.0656410927
H    0.1029926616    0.6658582968   -1.0610269029   -0.1535426927    0.7499332551   -1.5068871651
C   -0.4173294933   -0.5740644690    0.2466944150   -0.5509931048    1.3072888123    0.2533529248
H   -1.4084587406   -0.1916192331    0.5669556959    0.5356991536    0.0395163159    0.1325542618
H    0.0897639620   -0.9913932592    1.1039021945   -0.0096313532   -0.4301389060    0.0179915528
H   -0.6938362978   -1.3171352205   -0.5191455488    0.9014884849    0.1564449541    0.0373473331
6
energy=-3142.9497379761 Properties=species:S:1:pos:R:3:forces:R:3 pbc="T T T" Lattice="200.000 0.000 0.000 0.000 200.000 0.000 0.000 0.000 200.000"
O    0.0329898258   -0.4588340560   -0.5028597752    0.3419330917   -0.5256646515   -0.3814663768
H   -0.1067668903   -1.2979940026   -0.0872202384    0.0318991651   -0.9427778336    0.2108865249
C   -0.0198108512    0.5097531996    0.5063198747   -0.4038498884    2.0185891827   -1.8444426962
H    0.9356734962    0.7713398884    0.9467717237    0.2172983425   -0.4893251909    0.4810606363
H   -0.8244336559    0.3456009435    1.1953668135   -0.1812026225   -0.1673855131    0.7380820114
H   -0.2921027463    1.3905386066   -0.1056312474   -0.0060775741    0.1065640064    0.7958804147
6
energy=-3142.9133722716 Properties=species:S:1:pos:R:3:forces:R:3 pbc="T T T" Lattice="200.000 0.000 0.000 0.000 200.000 0.000 0.000 0.000 200.000"
O   -0.1009452698   -0.1780239542   -0.6539521956   -0.9359001322   -2.1611743471   -0.4364823322
H   -0.6636237094   -1.0106452108   -0.6417605354    1.0203994439    1.5558687409    0.0466439286
C    0.1449223713    0.2334553110    0.6662865309   -1.9988364241    0.4728798997    0.9906810886
H   -0.8537173423    0.5322194782    1.1740794471    1.6406215633    0.2690479681   -0.7814123019
H    0.8691589875    1.0316201636    0.5426726100   -0.2195470295    0.3222975754    0.5448198857
H    0.5237245002   -0.5090349604    1.3666322236    0.4932625786   -0.4589198369   -0.3642507830
6
energy=-3142.9156188436 Properties=species:S:1:pos:R:3:forces:R:3 pbc="T T T" Lattice="200.000 0.000 0.000 0.000 200.000 0.000 0.000 0.000 200.000"
O   -0.6852592316   -0.0587215636    0.0323307989   -0.4409565662   -0.2024311945    0.4114762952
H   -1.0303325555   -0.7631045887   -0.5380929681    0.7045517383    0.1366027211    0.1795427182
C    0.7112890155    0.0957670746    0.0098702342    1.5119224139    1.1330255978   -1.6826884137
H    1.1554260125   -0.0543819236   -1.0318248554   -0.7200549773    0.4691096337    1.0264343376
H    1.3563070138   -0.5574232070    0.6139772940   -0.8134127685   -0.2011399864    0.4690643823
H    0.9209515334    1.1659120593    0.3250874317   -0.2420503545   -1.3351662575   -0.4038293196
6
energy=-3142.9445569010 Properties=species:S:1:pos:R:3:forces:R:3 pbc="T T T" Lattice="200.000 0.000 0.000 0.000 200.000 0.000 0.000 0.000 200.000"
O    0.5835143823    0.4185110666   -0.0843333125   -1.0011881596   -0.5131629185    0.2082984523
H    1.2383738285    0.1287444668    0.5903073667   -0.9329500482    0.0540939576   -0.5731112785
C   -0.6452171596   -0.4106663388    0.0473483317    1.5846265319    0.2647969058   -1.1718646850
H   -1.1063375161   -0.2391426075    0.9928958821   -0.4088152032    0.1084907913    0.7736542547
H   -0.3144954876   -1.4500746941   -0.0417381121   -0.4537920284   -0.0196915664    0.0392869734
H   -1.3920606964   -0.1896389368   -0.7669208920    1.2121194217    0.1054723159    0.7237362831
6
energy=-3142.9432769590 Properties=species:S:1:pos:R:3:forces:R:3 pbc="T T T" Lattice="200.000 0.000 0.000 0.000 200.000 0.000 0.000 0.000 200.000"
O    0.1935923871    0.1045042852    0.6587113159    0.8091498791   -0.8057195130    0.0723061111
H    0.9726840882   -0.4872462114    0.7785903035   -0.8209846678    0.6392837655   -0.0389193057
C   -0.2351431249   -0.0657728753   -0.6862573221   -1.1111969303    0.1797535487    0.0188780693
H   -0.6175067723   -1.0667608147   -0.8996619009    0.6354060274   -0.4900656687    0.0850844948
H    0.5877417447    0.1952611057   -1.3881307644   -0.9843104088    0.1398705935    0.1286168741
H   -1.2141084725    0.4835462145   -0.7699949014    1.4719361004    0.3368777883   -0.2659657294
6
energy=-3142.9621465586 Properties=species:S:1:pos:R:3:forces:R:3 pbc="T T T" Lattice="200.000 0.000 0.000 0.000 200.000 0.000 0.000 0.000 200.000"
O    0.5930971336    0.2977562136    0.2069666836    0.5614816638    0.3139646294   -0.2467277057
H    1.1150410680    0.5334820271   -0.5938082947   -0.7818802427   -0.4360426735    0.7481946751
C   -0.6482074193   -0.3314246362   -0.1674775157    0.4874734823    2.9500988988    0.5162821811
H   -1.0114194750    0.2180331106   -1.0421330382   -0.4861601627   -0.5535595802    0.0566367789
H   -1.3344001860   -0.1946506307    0.6851394438    0.2655522960   -0.1126179264   -0.4720849145
H   -0.4602309019   -1.3343026752   -0.3390141599   -0.0464670367   -2.1618433482   -0.6023010149
6
energy=-3142.9326606544 Properties=species:S:1:pos:R:3:forces:R:3 pbc="T T T" Lattice="200.000 0.000 0.000 0.000 200.000 0.000 0.000 0.000 200.000"
O   -0.4738207268    0.3614384837   -0.3566180769   -0.0586340119    1.3058474518    1.4209758035
H   -0.8084203187    0.9789522216    0.3259358279   -0.1256467355   -0.2592073271   -0.7483078036
C    0.5042681479   -0.3917978830    0.3347039631    0.0326653539   -1.8597273915   -2.2414966443