36
 energy: -49.418168468423 gnorm: 0.035378979403 xtb: 6.4.0 (d4b70c2)
O        -0.71999771750000    2.04303061750000   -1.58685349660000
H         0.19746051880000    1.93800012270000   -1.21526453620000
C        -0.61946843720000    2.01550186630000   -3.00393044090000
H        -1.63081703250000    2.10548669290000   -3.41094831000000
H        -0.17789663900000    1.07906508250000   -3.37429732240000
H        -0.01766557130000    2.85479196450000   -3.37790711460000
O        -2.56224614460000    0.31993641440000   -0.67280238120000
H        -1.84751211340000    0.93527023450000   -0.99122504940000
C        -3.53351206200000    1.09144990490000    0.01891520370000
H        -4.28844053600000    0.40334514010000    0.41040689980000
H        -4.02904146800000    1.80634121400000   -0.65217806380000
H        -3.10184804160000    1.64950010570000    0.86248379330000
O         2.56307840420000   -0.31028271890000    0.70664545220000
H         1.82783264280000   -0.87368065040000    1.06918116210000
C         3.48937837690000   -1.16936357880000    0.05699517390000
H         4.27258146280000   -0.54390993510000   -0.38125052360000
H         3.02256979580000   -1.75642853230000   -0.74714514860000
H         3.95660412400000   -1.86481609990000    0.76754794420000
O         1.81097557890000    1.83146698500000   -0.72519532760000
H         2.04938537940000    1.00271528700000   -0.22869325980000
C         2.25748324300000    2.94129745220000    0.04095197170000
H         1.93673599060000    3.85162076030000   -0.47389707840000
H         3.35294905240000    2.95545916420000    0.12351915600000
H         1.83291650530000    2.94713012710000    1.05508354300000
O         0.68916623260000   -1.96804078360000    1.67643938650000
H        -0.20953191210000   -1.92076929690000    1.25227787660000
C         0.51139427420000   -1.93372179380000    3.08515667170000
H         1.50322903660000   -1.94351147270000    3.54656627030000
H        -0.04588493980000   -2.81145941090000    3.43958349640000
H        -0.01770604950000   -1.02913636740000    3.41812151740000
O        -1.78482652700000   -1.88937078920000    0.63709811080000
H        -2.02700460560000   -1.04292321210000    0.17343443730000
C        -2.10128068520000   -2.96873611190000   -0.23020579850000
H        -1.80876728050000   -3.89577935830000    0.27155253350000
H        -1.56441707620000   -2.90750540970000   -1.18799228340000
H        -3.17889811330000   -3.01129038500000   -0.43891058190000
36
 energy: -49.369600912193 gnorm: 0.168432475518 xtb: 6.4.0 (d4b70c2)
O        -0.66262944164459    1.99249172769837   -1.56225772618724
H         0.24617431510284    1.75568086349686   -1.29658639656939
C        -0.62963985259081    2.02154613312883   -2.96251922213388
H        -1.67344134747982    1.97536015888598   -3.21537598433350
H        -0.00407636421955    1.16682526349259   -3.30522519099097
H        -0.25663670289089    2.92964517391775   -3.38074607988900
O        -2.58726697060658    0.33628022738391   -0.67640632066728
H        -1.79995507738150    0.95929618876194   -0.90083433706561
C        -3.59847663215271    1.11375115508728    0.03420843234475
H        -4.35344182981064    0.44835682330360    0.31097937067893
H        -3.90005880195914    1.80890628062972   -0.70291361490755
H        -3.27753207678236    1.66315158670373    0.89556690814967
O         2.57402428681974   -0.29927159954363    0.68807999644607
H         2.11707938546202   -0.89022396715700    1.30489725180209
C         3.50623805396433   -1.12327707375297    0.04556895627277
H         3.97059231918005   -0.48791096853282   -0.70835266159778
H         2.95366352697332   -1.95764686856680   -0.36015001774093
H         4.22398356649618   -1.44100670315071    0.78664256585634
O         1.81715391580691    1.84048547979264   -0.70720756097529
H         2.27553236587367    1.02844068126015   -0.46108217506230
C         2.30879365992736    2.89452179646682    0.00817911442778
H         1.81189439429246    3.79410660978210   -0.21551873388156
H         3.36494225619689    2.92610558896445   -0.14443086760968
H         2.08950914561333    2.66415778296768    1.12775101465180
O         0.62867854504127   -2.02127517714210    1.67569915545877
H        -0.26086999415616   -2.18253759985295    1.27147933068546
C         0.47962718499756   -1.84920528408362    3.05972419585884
H         1.49090206712306   -1.62506804558102    3.34058804871300
H         0.13888618704169   -2.76557648768231    3.63080116023516
H        -0.11831204725466   -1.04636226619565    3.34696966394829
O        -1.78113160581915   -1.91658789778391    0.61305973029868
H        -2.27829955666776   -1.10254637792249    0.42155619169534
C        -2.06534801092630   -2.93635726405397   -0.23289499492364
H        -1.48878355856159   -3.82826116656492    0.13166364436504
H        -1.57912484349984   -2.62559752876064   -1.25814160019189
H        -3.10997727725003   -3.22647710869909   -0.45209361461651
36
 energy: -49.336365273169 gnorm: 0.221917048988 xtb: 6.4.0 (d4b70c2)
O        -0.59963233327465    1.94584350194690   -1.52667074810538
H         0.25915251301891    1.84141332825645   -1.07897592287620
C        -0.67715079433129    2.02126197465258   -2.93136979245402
H        -1.58513850817792    1.70613928613342   -3.29946240027671
H        -0.01363299354148    1.26956050146957   -3.51087516842136
H        -0.36232813007314    2.99064309504109   -3.20513144611152
O        -2.65052471615650    0.36536185481007   -0.61490873503713
H        -1.82191979097702    0.99122966612475   -0.91076733061042
C        -3.62303757992539    1.11784953905149   -0.03484048478517
H        -4.40374327556814    0.50060494493743    0.16167821559442
H        -4.09568616571549    1.90074644836069   -0.55991876590960
H        -3.19068355222292    1.47256610671267    0.86352725939592
O         2.58118489927237   -0.28140942768607    0.69384778418201
H         2.03037945749141   -0.71897501677307    1.36424064646802
C         3.52832106465148   -1.08493041569656    0.04064289405530
H         3.69299378325109   -0.75615989871835   -0.98893846863243
H         3.25392365789548   -2.12681538433286   -0.07848058981498
H         4.49919606579802   -1.09485720751932    0.49183042702192
O         1.80900069840687    1.81503563492589   -0.76013251741816
H         2.24591707913100    1.01319498103748   -0.42136956416025
C         2.39016510080602    2.85876707264215    0.05820049188659
H         1.74483486648825    3.66592519118602   -0.12442257698862
H         3.30948803410592    3.22880893921683   -0.29710661011823
H         2.52044841877126    2.62451107721144    1.18771083227617
O         0.56981543020460   -2.08996764342793    1.68718176010320
H        -0.32222989045339   -2.16671281514142    1.26873866738347
C         0.49395386706792   -1.75364355591481    3.04416011352768
H         1.36320095139869   -1.34914473147766    3.48714536522012
H         0.24592146163447   -2.73938350806872    3.58831075377422
H        -0.28072466108777   -1.09934920450416    3.13630361530695
O        -1.81449049232891   -1.91008335037986    0.66685372121663
H        -2.32543750897879   -1.16687410691201    0.28170690566457
C        -1.98825414519207   -2.95055083441876   -0.34151741952470
H        -1.34311317147896   -3.83568144673175   -0.02198117154033
H        -1.77260818555034   -2.64585401295657   -1.46638659967366
H        -3.04496785378068   -3.22152939781132   -0.13798334024100
36
 energy: -49.348648856531 gnorm: 0.202209649770 xtb: 6.4.0 (d4b70c2)
O        -0.60927497636059    1.88434899300997   -1.48856958082417
H         0.35097056034905    1.99435498660602   -1.37576129172174
C        -0.67522804093630    2.00249175850171   -2.90635248897539
H        -1.65967324447617    1.78541394539297   -3.12782837966942
H         0.22135333163227    1.46718216355509   -3.33086087090617
H        -0.65784453304374    3.03927552778343   -3.23779026452313
O        -2.67858259694780    0.36380414099326   -0.61239821562554
H        -1.86649490163806    1.00409338806621   -0.95897383785268
C        -3.69930172723726    1.14474267507120   -0.02629108414428
H        -4.46054514542116    0.50108388512388    0.15729063425859
H        -3.87690682219890    1.99626150962316   -0.63918662703481
H        -3.45344889626340    1.53457732351107    0.94219978276525
O         2.60690298310696   -0.25038626775369    0.70166681196993
H         1.96198667508737   -0.90650240937394    1.06463410874219
C         3.56781364896207   -1.09013926684928    0.01303149572902
H         3.31659358125486   -0.91483231909958   -1.02861355669266
H         3.42293249940333   -2.09339938638301    0.37448396941811
H         4.51013362348898   -0.66355925151817    0.28869440488766
O         1.88586799431440    1.81231238779474   -0.76311918422619
H         1.91253310566658    0.92057900574212   -0.37598163807143
C         2.42962206044941    2.85413517871162    0.04436478314104
H         1.68200628585135    3.55478165246812    0.28411678753400
H         3.27593960685057    3.18804000782610   -0.49040481441819
H         2.72764466716475    2.38518006242365    1.06895076871588
O         0.58572012226245   -2.14577597323940    1.68770965164094
H        -0.35996831506169   -1.98297675542214    1.37859367685658
C         0.44061460205856   -1.69119787618187    3.03871093751666
H         1.30824778337138   -1.11584618108517    3.28219606193602
H         0.33459798680237   -2.53435078880026    3.80201256016952
H        -0.40325300815989   -1.09356823922015    3.20932796155756
O        -1.86238068397838   -1.93183993821003    0.65244854348069
H        -2.03824050420452   -1.03898351148253    0.25988250132075
C        -1.95349480351068   -2.94965862078416   -0.35173353727700
H        -1.10978876646199   -3.72951243858912   -0.26946341352011
H        -1.94330660449098   -2.45442119045958   -1.42056438290761
H        -2.95078520796175   -3.50195771300839   -0.34980966212671
36
 energy: -49.350824824238 gnorm: 0.166133284815 xtb: 6.4.0 (d4b70c2)
O        -0.61000860500259    1.84417009382822   -1.48323927836451
H         0.27292685592334    2.03336762692020   -1.11396754827872
C        -0.71100317415711    2.02434428517334   -2.85619505230997
H        -1.50980091128321    1.39834323405169   -3.23691372432590
H         0.08271250849215    1.47019538757392   -3.44145681751920
H        -0.66787033260757    3.09321556853858   -3.11815349702367
O        -2.70390061806967    0.35312850297813   -0.60723397417136
H        -1.87441036625842    1.01625948432326   -0.86241299032069
C        -3.75404109239781    1.17575484752589   -0.00298579666823
H        -4.66651026565656    0.65380246501180   -0.07587319803742
H        -3.96523136865502    1.95480582177867   -0.73738541875565
H        -3.49655295378709    1.56309591972171    0.96853353198546
O         2.62593704272744   -0.27582454427706    0.72131798384486
H         1.79073023050281   -0.80090649521735    0.75199828919966
C         3.56363050030013   -1.03500050565447    0.01209036655437
H         3.28194244091216   -1.42350475536430   -0.98536274255712
H         3.83258358926971   -1.96023038168650    0.56272038927824
H         4.49514878472848   -0.48031520613068   -0.11667121154461
O         1.95597140476097    1.82089084629476   -0.78421817836321
H         1.81004790407550    1.13616104290696   -0.12174758166257
C         2.46472827764117    2.78662437522232    0.04626958000271
H         1.75878501059789    3.50130627410642    0.44801896550145
H         3.17655501069858    3.44245373561602   -0.48955876361745
H         3.10592090245358    2.28868818141999    0.83402217355572
O         0.58806459029850   -2.16556314233434    1.73490150977920
H        -0.20396466745046   -2.14832197387383    1.11555035246851
C         0.40583070457690   -1.62706009581516    3.03243428096972
H         1.25184620164229   -0.95113235175361    3.15078140686266
H         0.53868959214879   -2.44618085863105    3.76948478513261
H        -0.50706370359677   -1.03668652653104    3.11265593804316
O        -1.91182528549285   -1.97974693006511    0.62262342931398
H        -1.93925917859940   -1.08703100440231    0.21149875018759
C        -1.94111237257138   -2.90980018957554   -0.38394928091112
H        -0.90924905082528   -3.42883109860385   -0.34737139505409
H        -1.92840987046161   -2.34232931167573   -1.36374072792966
H        -2.75584905667531   -3.67427346369757   -0.26169790222048
36
 energy: -49.354392898497 gnorm: 0.177068319487 xtb: 6.4.0 (d4b70c2)
O        -0.63075826307337    1.80558285606665   -1.45076346685939
H         0.28037976711304    2.02433495185233   -1.15775237902977
C        -0.70983626448520    1.99036862229297   -2.85360341335922
H        -1.70040136356854    1.53011706995116   -3.18775997308898
H         0.23929187777941    1.76267079301474   -3.30064215850025
H        -0.94433048187129    3.09015518394334   -3.10679688138180
O        -2.77347502754799    0.36787070331613   -0.55601867700832
H        -1.89868438374975    0.99062154806510   -0.78292561319470
C        -3.77099785717120    1.18142713995829   -0.09285142145948
H        -4.66532914304720    0.53125876296048    0.05953653498146
H        -3.91451766761584    2.16874634063958   -0.56585602667406
H        -3.50456957628071    1.43624910904384    0.97914937149169
O         2.62105392812807   -0.31473029971985    0.72616047001754
H         1.76228819586064   -0.80469840948979    0.74017182414305
C         3.60324175873456   -1.02920586424130    0.01254532298134
H         3.05252543666246   -1.62322466837057   -0.74527038581963
H         4.21350666993080   -1.61037842223674    0.73124573745447
H         4.22963249808812   -0.23736796404015   -0.48658106685836
O         1.99020401372896    1.81576736539760   -0.80603185894418
H         1.86103024373873    0.97538746587363   -0.32656889643658
C         2.58828184379340    2.80121049475770    0.07142020268230
H         1.71474387996687    3.14709812638894    0.71338057048536
H         2.97587438598294    3.59200427696767   -0.60574002791787
H         3.33081991596940    2.41728035765671    0.76872439952073
O         0.61398566390406   -2.17737489997199    1.75736404729136
H        -0.35668044325353   -2.27074747513597    1.43058376891107
C         0.40893689589231   -1.55221008746443    2.98768805984439
H         1.11149495399454   -0.73879877456201    3.22778490249447
H         0.44618949653008   -2.29619153836026    3.78284435253186
H        -0.67947409988783   -1.20694896307659    3.08507283722478
O        -1.95683505769540   -1.98384930772200    0.64377410898771
H        -2.26354169604395   -1.10392490797991    0.30575977389221
C        -1.86297692452682   -2.89203719094338   -0.48357479570738
H        -0.89820360736316   -3.43293861462437   -0.53547987639820
H        -2.23863799932439   -2.57500328276219   -1.43114839626126
H        -2.64457856049824   -3.67037896494342   -0.22935203602710
36
 energy: -49.355664466621 gnorm: 0.188547719763 xtb: 6.4.0 (d4b70c2)
O        -0.65524007740663    1.77476561172109   -1.42323247144237
H         0.29033449714316    1.91683309823217   -1.24733486514498
C        -0.73541678941492    2.01888672184043   -2.82562217669291
H        -1.52048695281749    1.21867987020450   -3.26637804966270
H         0.14973318710461    1.73433207704971   -3.36562721874977
H        -0.97614546783818    3.11353422084794   -2.97333535344486
O        -2.81210060521650    0.36099624086940   -0.54861948772110
H        -1.87919955878576    0.88150721436550   -0.78427159320030
C        -3.80113761048161    1.20475825543680   -0.05677155768254
H        -4.82632612344931    0.61042055414568   -0.19159240655470
H        -3.95630534056487    2.09461262248550   -0.75946021748754
H        -3.62077722114868    1.51786668560976    1.00383911446440
O         2.58583351913048   -0.33826284370210    0.73847322469032
H         1.99177172637568   -1.07111577240362    1.06832493000494
C         3.62291140176709   -1.00702373977701    0.00487049014842
H         3.25877156908173   -1.95945550722712   -0.48787557180909
H         4.49174662989517   -1.31247724155729    0.63983037771165
H         3.96398032024985   -0.28756090786165   -0.79553135939728
O         2.04715160456031    1.83299362616928   -0.80913258261414
H         2.25117810382081    0.94801787773397   -0.46031482454179
C         2.63358771930101    2.78245101097305    0.07673611168059
H         1.95166012682406    3.04634084417980    0.97260774148389
H         2.81062704871195    3.72672294228910   -0.53402242920044
H         3.58616733421208    2.42901807985199    0.37728240404874
O         0.62700145220843   -2.16695036983006    1.76039591458558
H        -0.27516149178287   -2.50352355269973    1.43805672149377
C         0.37079895348792   -1.50436197530999    3.00761871896370
H         1.03314830466342   -0.59705162454134    3.04774267977814
H         0.59163712994110   -2.11697665746987    3.83091757733054
H        -0.71454017674175   -1.05801152254515    2.98959583089467
O        -1.97178242772129   -1.99646139673260    0.61071364576000
H        -2.55118309429431   -1.23731305424543    0.37336839178210
C        -1.87262349106923   -2.90830314787454   -0.51509508494281
H        -0.81665566231954   -3.08875542933040   -0.72543394196955
H        -2.18670266299384   -2.37153968995177   -1.34206577800842
H        -2.38271615927554   -3.84302241589251   -0.27363988310056
36
 energy: -49.336390483238 gnorm: 0.199805955711 xtb: 6.4.0 (d4b70c2)
O        -0.65136039090250    1.75523641388547   -1.42448647346038
H         0.20489618529160    1.71399221327371   -1.00877400192305
C        -0.76176257583230    2.00337405402207   -2.78398634085589
H        -1.59915817364553    1.28378993493399   -3.28734866141262
H         0.19468923441599    1.90480621641481   -3.25052563214794
H        -1.12522322477425    3.04700142825802   -3.04820804385282
O        -2.84503996814372    0.32116154045317   -0.54360638482485
H        -1.95868509729950    0.92941823348388   -0.71731786065236
C        -3.85830155128803    1.23676743155133   -0.06102204577277
H        -4.91812431584194    0.66450330678058   -0.13839352018644
H        -3.82239443685434    2.15813777499316   -0.74634983530799
H        -3.76772681012928    1.63282954052388    0.98552140633097
O         2.57108905214448   -0.41259602609618    0.73277712555755
H         2.24766786989282   -1.02929777503365    1.43054371204669
C         3.62398059494480   -0.98292253042253   -0.00255469798902
H         3.47017126085893   -2.07393425778560   -0.16687930479840
H         4.57876289858315   -0.82102801480934    0.58042004453590
H         3.77301750590025   -0.49470714937431   -1.01190024139463
O         2.10849608674589    1.86292161226391   -0.80636908387094
H         2.38267044175814    1.01375202109263   -0.41206535801907
C         2.68969257656133    2.76218389282550    0.04719195823629
H         2.26081041232498    2.75386492570637    1.14056831095606
H         2.56221441770089    3.81261422030137   -0.37877914088847
H         3.70966993594907    2.56868289649632    0.13273750533086
O         0.63654220136902   -2.14918594844249    1.79521975051086
H        -0.09718047448963   -2.56932580602491    1.31996143852083
C         0.34406378634364   -1.43177106945020    2.97844419674710
H         1.05099578692584   -0.56532445059273    2.92303359334791
H         0.57195885287890   -2.01007385432382    3.83121186057184
H        -0.79105331932371   -1.12150140436522    3.08907341796039
O        -1.98289557977606   -2.05473169730182    0.57156295578287
H        -2.61421100792025   -1.33142729193313    0.32603518926559
C        -1.86017111836209   -2.84601749061688   -0.52550528229263
H        -0.82629538435777   -2.88531638376792   -0.72837277059324
H        -2.38435348913075   -2.48389753862536   -1.34876962218150
H        -2.20618274212759   -3.86231459017573   -0.45429156250257
36
 energy: -49.344233164122 gnorm: 0.193106783859 xtb: 6.4.0 (d4b70c2)
O        -0.68421939571018    1.73116679587444   -1.37871306000856
H         0.26443113990503    1.69281043085006   -1.27640841024690
C        -0.75923053542134    2.00523932659216   -2.78052048543868
H        -1.50580121538106    1.19342192150748   -3.18583900264010
H         0.18526106590260    1.96576071240808   -3.26688338901634
H        -1.19800328961273    3.01103926493944   -2.83743320310928
O        -2.92872411860310    0.31740918069188   -0.49390473235394
H        -1.99394523212141    0.81665235087438   -0.72953651411076
C        -3.87211413367286    1.25025507182588   -0.11839129128052
H        -4.93744820114450    0.71265757373688   -0.12521863594000
H        -3.92092588245825    2.21937356141769   -0.70709198318584
H        -3.59308307743488    1.44523425071516    0.94664929390540
O         2.55779253769003   -0.47364073035193    0.71189491455339
H         2.42032282552093   -1.04047879576837    1.50727699692662
C         3.66133330632159   -0.97830104995534    0.01339700443717
H         3.69692806899225   -2.07476696249130    0.11282407545010
H         4.60051338277742   -0.50231721488865    0.36093561521896
H         3.40120407141358   -0.68055511045306   -1.02723006115562
O         2.15071359394340    1.85732858606613   -0.81907165335665
H         2.10063208869253    0.94690225555425   -0.45972633074795
C         2.78991130745521    2.80376527654566    0.06149694883830
H         2.50627770382856    2.41568342423253    1.06575081178836
H         2.29197533282023    3.79218855529228   -0.18242697188998
H         3.83916596570264    2.86616946579482   -0.03129358593372
O         0.66852290293227   -2.13941843617825    1.82957149011084
H        -0.21775071727967   -2.33907823985815    1.52685102723525
C         0.32708493504516   -1.37877583440121    2.93875641663033
H         0.81159462719421   -0.37734773054251    3.05894464555618
H         0.54833791219871   -1.94925948129043    3.82768359925089
H        -0.81313317462482   -1.11153061190646    2.93838766211394
O        -2.03045134354013   -2.09495755209065    0.59609545966983
H        -2.44286790145144   -1.20103296669237    0.41048184087951
C        -1.81481547105809   -2.82720642631693   -0.63788099769229
H        -0.84627752651721   -2.82882504697319   -1.01859186042123
H        -2.45931819173200   -2.54843196884331   -1.40432982082240
H        -2.04773211302179   -3.79218764572482   -0.26455675024173
36
 energy: -49.368303663898 gnorm: 0.137814340442 xtb: 6.4.0 (d4b70c2)
O        -0.67540524390854    1.70362123627269   -1.35132748041357
H         0.24589725385670    1.74225608388306   -1.06443968229716
C        -0.80192463177495    2.00386784328924   -2.74277778509497
H        -1.36916843308979    1.25571753057760   -3.30196690395412
H         0.14839954111890    1.98447695716578   -3.27106444605205
H        -1.24692079264723    2.97512880221505   -2.92000477289092
O        -2.98983030124136    0.28647076481260   -0.49122536939219
H        -2.05932501014285    0.75211590104731   -0.76470750865210
C        -3.89090360766773    1.26921127751857   -0.09354109980206
H        -4.92356712252202    0.79433210052233   -0.21009357561803
H        -3.88249959225055    2.12729355019917   -0.81273128470769
H        -3.79629260838556    1.68396993780543    0.92467150784572
O         2.54179174484334   -0.51615416791254    0.71275530936317
H         2.36416937757457   -1.05466582139163    1.51930841028246
C         3.68542075897320   -0.97986646944325    0.00295072848528
H         4.04875405784068   -1.95791260534414    0.28919891544856
H         4.55361025469557   -0.31761544242776    0.07563154600034
H         3.48702255454028   -1.05753762559232   -1.07927068078071
O         2.20172698267614    1.86704696424596   -0.84999900517246
H         2.07782293740077    1.08749182613234   -0.25697105890410
C         2.82232544671503    2.78291597230066    0.07239787973545
H         2.97238036212936    2.49007195095840    1.11318156651598
H         2.21016634131883    3.71884584047142    0.14214378145678
H         3.78514721419384    3.03551722828578   -0.34882983827287
O         0.67619055171718   -2.12398229334289    1.85197580565631
H        -0.05884030571103   -2.28467457890654    1.25672806152677
C         0.28097335522976   -1.30545048914100    2.97070028253883
H         0.84372710869478   -0.35661460964229    2.88379193337079
H         0.49883490386412   -1.81174869930933    3.92567379054440
H        -0.82174304151478   -1.16645567876142    2.87896663508439
O        -2.05216565427978   -2.12774198073160    0.58380806388146
H        -2.12008682976779   -1.16160552485254    0.32848384245792
C        -1.80647374602607   -2.82815718944041   -0.67799195183442
H        -0.86335146723142   -2.51776982584843   -1.04911099043382
H        -2.57656414047352   -2.51474525505746   -1.34484202013074
H        -1.81253501005328   -3.88707768574766   -0.49551533786451
36
 energy: -49.360504122675 gnorm: 0.180622377956 xtb: 6.4.0 (d4b70c2)
O        -0.67527336047785    1.67115580304793   -1.34915500088695
H         0.20104320860869    1.92124989990739   -1.02184789968118
C        -0.81231448245486    1.99603648174189   -2.71326158485590
H        -1.41141875203311    1.25961959529417   -3.08453227294295
H         0.19645875220617    2.11793517147579   -3.07543114678116
H        -1.34089743325174    2.92650467807539   -2.83286089340005
O        -3.02032700026820    0.25195545850841   -0.48304864097789
H        -2.14567297877968    0.77427218690187   -0.79706892230686
C        -3.95160750339022    1.30765432142074   -0.10322035293765
H        -4.92920022889733    0.86730636472155   -0.12255012701869
H        -3.80744718735083    2.07937654350318   -0.82772115900637
H        -3.78720878664386    1.72089964539803    0.89447190401954
O         2.56236559400136   -0.54560267954875    0.69337790499513
H         2.23702896210285   -1.25937761044548    1.30572247050837
C         3.71890512855521   -0.99216770527448   -0.01632878770324
H         4.17110582268373   -1.75155407395088    0.57998820369751
H         4.28561034086458   -0.09097994478982   -0.02968164675624
H         3.41139359293125   -1.33843587473072   -0.99129423749790
O         2.24800723280531    1.88256906704100   -0.80473443611552
H         2.14540641988165    0.97655068943831   -0.39754370538990
C         2.85462336206262    2.78984261984160    0.04278233407401
H         3.29850132932183    2.24410432510954    0.81787972840700
H         2.15483579993607    3.57726128315653    0.33568666662924
H         3.70469276802226    3.26272582198808   -0.54416113624705
O         0.68553205345222   -2.10915920611038    1.90287985562356
H         0.07448115853064   -2.14026656925686    1.20280032711151
C         0.21908417402298   -1.25837528534827    2.94187608187814
H         0.73185352741841   -0.29143384284523    2.85349242630658
H         0.52502015339273   -1.71941325949444    3.92710263229408
H        -0.81742974047522   -1.03001947989169    3.00704934697320
O        -2.03355263673055   -2.19230708675337    0.53575880117025
H        -2.11857817865974   -1.20062845037481    0.33644875410056
C        -1.81312338018908   -2.77239367704220   -0.66629033762913
H        -0.92969050622235   -2.29736071445993   -1.15555021140707
H        -2.68107992277271   -2.66549570399516   -1.36332522582700
H        -1.60783688679124   -3.83202213288102   -0.66961307504533
36
 energy: -49.339451103748 gnorm: 0.217375499917 xtb: 6.4.0 (d4b70c2)
O        -0.67991882273981    1.63888339661154   -1.31015892760208
H         0.15615516598039    2.06524328593239   -1.05882404452752
C        -0.81485888146076    2.00108909131384   -2.66769084895570
H        -1.26681008109390    1.25069047225711   -3.16061815386512
H         0.07341172923826    2.05650630026241   -3.31491601286547
H        -1.36562699249210    2.90753184852165   -2.70449464960103
O        -3.07324129372169    0.26647874344730   -0.44850153569576
H        -2.14618757907375    0.66867689505008   -0.78475851245689
C        -3.96121897828703    1.30030863485954   -0.14750422521192
H        -4.92153120450591    0.95409383654685   -0.10500214376347
H        -4.02531769754172    2.12673543860606   -0.78849235790689
H        -3.61530094499725    1.59803875351213    0.81891187021879
O         2.57723814012727   -0.57417398774245    0.67367409628234
H         1.97656552090874   -1.36079472642382    0.82882855448441
C         3.72332776435050   -0.98168920512769    0.01349104258850
H         4.44816685927991   -1.51669123689249    0.60187410303342
H         4.28514322878844   -0.17430093679604   -0.41787410583619
H         3.51115659696488   -1.61579765256628   -0.83501330507761
O         2.23568211795836    1.86945731841933   -0.79942651614794
H         2.36244245869473    0.95211445571958   -0.40862850159728
C         2.93888179693212    2.80036935013618    0.02165178635365
H         3.54506841215923    2.33576566005496    0.73321463329220
H         2.22749493541334    3.28464317132967    0.65589043105769
H         3.51833357053875    3.57018408287610   -0.59870656122688
O         0.67605786738885   -2.08990407192631    1.96040674300657
H         0.01937399593578   -2.02296122912254    1.32340283722418
C         0.19047854762725   -1.19657056259646    2.92181773244830
H         0.59061251371967   -0.20503266398937    2.84516203324616
H         0.53557918245475   -1.65072243840171    3.91223980892275
H        -0.83867677502213   -1.21469368040320    2.85508153040207
O        -2.00236208654398   -2.22872792711166    0.54734454021121
H        -2.51916371080097   -1.34601039867935    0.52139631617373
C        -1.79418486413316   -2.74247821643974   -0.77563987018832
H        -1.03247391165934   -2.18882661585345   -1.41005955066886
H        -2.78728783120942   -2.76209749924091   -1.35330039939890
H        -1.44045545305206   -3.70232964871226   -0.42547231498292
36
 energy: -49.333880762156 gnorm: 0.245995826747 xtb: 6.4.0 (d4b70c2)
O        -0.64993662672015    1.61568226918893   -1.28815652335675