
                                 *****************
                                 * O   R   C   A *
                                 *****************

           --- An Ab Initio, DFT and Semiempirical electronic structure package ---

                  #######################################################
                  #                        -***-                        #
                  #          Department of theory and spectroscopy      #
                  #               Directorship: Frank Neese             #
                  #        Max Planck Institute fuer Kohlenforschung    #
                  #                Kaiser Wilhelm Platz 1               #
                  #                 D-45470 Muelheim/Ruhr               #
                  #                      Germany                        #
                  #                                                     #
                  #                  All rights reserved                #
                  #                        -***-                        #
                  #######################################################


                         Program Version 4.2.0 -  RELEASE  -


 With contributions from (in alphabetic order):
   Daniel Aravena         : Magnetic Suceptibility
   Michael Atanasov       : Ab Initio Ligand Field Theory (pilot matlab implementation)
   Alexander A. Auer      : GIAO ZORA, VPT2
   Ute Becker             : Parallelization
   Giovanni Bistoni       : ED, misc. LED, open-shell LED, HFLED
   Martin Brehm           : Molecular dynamics
   Dmytro Bykov           : SCF Hessian
   Vijay G. Chilkuri      : MRCI spin determinant printing, contributions to CSF-ICE
   Dipayan Datta          : RHF DLPNO-CCSD density
   Achintya Kumar Dutta   : EOM-CC, STEOM-CC
   Dmitry Ganyushin       : Spin-Orbit,Spin-Spin,Magnetic field MRCI
   Miquel Garcia          : C-PCM Hessian, Gaussian charge scheme
   Yang Guo               : DLPNO-NEVPT2, CIM, IAO-localization
   Andreas Hansen         : Spin unrestricted coupled pair/coupled cluster methods
   Benjamin Helmich-Paris : CASSCF linear response (MC-RPA)
   Lee Huntington         : MR-EOM, pCC
   Robert Izsak           : Overlap fitted RIJCOSX, COSX-SCS-MP3, EOM
   Christian Kollmar      : KDIIS, OOCD, Brueckner-CCSD(T), CCSD density
   Simone Kossmann        : Meta GGA functionals, TD-DFT gradient, OOMP2, MP2 Hessian
   Martin Krupicka        : AUTO-CI
   Lucas Lang             : DCDCAS
   Dagmar Lenk            : GEPOL surface, SMD
   Dimitrios Liakos       : Extrapolation schemes; Compound Job, initial MDCI parallelization
   Dimitrios Manganas     : Further ROCIS development; embedding schemes
   Dimitrios Pantazis     : SARC Basis sets
   Taras Petrenko         : DFT Hessian,TD-DFT gradient, ASA, ECA, R-Raman, ABS, FL, XAS/XES, NRVS
   Peter Pinski           : DLPNO-MP2, DLPNO-MP2 Gradient
   Christoph Reimann      : Effective Core Potentials
   Marius Retegan         : Local ZFS, SOC
   Christoph Riplinger    : Optimizer, TS searches, QM/MM, DLPNO-CCSD(T), (RO)-DLPNO pert. Triples
   Tobias Risthaus        : Range-separated hybrids, TD-DFT gradient, RPA, STAB
   Michael Roemelt        : Original ROCIS implementation
   Masaaki Saitow         : Open-shell DLPNO-CCSD energy and density
   Barbara Sandhoefer     : DKH picture change effects
   Avijit Sen             : IP-ROCIS
   Kantharuban Sivalingam : CASSCF convergence, NEVPT2, FIC-MRCI
   Bernardo de Souza      : ESD, SOC TD-DFT
   Georgi Stoychev        : AutoAux, RI-MP2 NMR
   Willem Van den Heuvel  : Paramagnetic NMR
   Boris Wezisla          : Elementary symmetry handling
   Frank Wennmohs         : Technical directorship


 We gratefully acknowledge several colleagues who have allowed us to
 interface, adapt or use parts of their codes:
   Stefan Grimme, W. Hujo, H. Kruse,             : VdW corrections, initial TS optimization,
                  C. Bannwarth                     DFT functionals, gCP, sTDA/sTD-DF
   Ed Valeev, F. Pavosevic, A. Kumar             : LibInt (2-el integral package), F12 methods
   Garnet Chan, S. Sharma, J. Yang, R. Olivares  : DMRG
   Ulf Ekstrom                                   : XCFun DFT Library
   Mihaly Kallay                                 : mrcc  (arbitrary order and MRCC methods)
   Andreas Klamt, Michael Diedenhofen            : otool_cosmo (COSMO solvation model)
   Jiri Pittner, Ondrej Demel                    : Mk-CCSD
   Frank Weinhold                                : gennbo (NPA and NBO analysis)
   Christopher J. Cramer and Donald G. Truhlar   : smd solvation model
   Lars Goerigk                                  : TD-DFT with DH, B97 family of functionals
   V. Asgeirsson, H. Jonsson                     : NEB implementation
   FAccTs GmbH                                   : IRC, NEB, NEB-TS, Multilevel, MM, QM/MM, CI optimization
   S Lehtola, MJT Oliveira, MAL Marques          : LibXC Library


 Your calculation uses the libint2 library for the computation of 2-el integrals
 For citations please refer to: http://libint.valeyev.net

 Your ORCA version has been built with support for libXC version: 4.2.3
 For citations please refer to: https://tddft.org/programs/libxc/

 This ORCA versions uses:
   CBLAS   interface :  Fast vector & matrix operations
   LAPACKE interface :  Fast linear algebra routines
   SCALAPACK package :  Parallel linear algebra routines


----- Orbital basis set information -----
Your calculation utilizes the basis: cc-pVTZ 
       H, B-Ne : Obtained from the ccRepo (grant-hill.group.shef.ac.uk/ccrepo) Feb. 2017
                 T. H. Dunning, Jr., J. Chem. Phys. 90, 1007 (1989)
            He : Obtained from the ccRepo (grant-hill.group.shef.ac.uk/ccrepo) Feb. 2017
                 D. E. Woon, T. H. Dunning, Jr., J. Chem. Phys. 100, 2975 (1994)
  Li-Be, Na-Mg : Obtained from the ccRepo (grant-hill.group.shef.ac.uk/ccrepo) Feb. 2017
                 B. P. Prascher, D. E. Woon, K. A. Peterson, T. H. Dunning, Jr., A. K. Wilson, Theor. Chem. Acc. 128, 69 (2011)
         Al-Ar : Obtained from the ccRepo (grant-hill.group.shef.ac.uk/ccrepo) Feb. 2017
                 D. E. Woon, T. H. Dunning, Jr., J. Chem. Phys. 98, 1358 (1993)
            Ca : Obtained from the Peterson Research Group Website (tyr0.chem.wsu.edu/~kipeters) Feb. 2017
                 J. Koput, K. A. Peterson, J. Phys. Chem. 106, 9595 (2002)
         Sc-Zn : Obtained from the ccRepo (grant-hill.group.shef.ac.uk/ccrepo) Feb. 2017
                 N. B. Balabanov, K. A. Peterson, J. Chem. Phys. 123, 064107 (2005)
                 N. B. Balabanov, K. A. Peterson, J. Chem. Phys. 125, 074110 (2006)
         Ga-Kr : Obtained from the ccRepo (grant-hill.group.shef.ac.uk/ccrepo) Feb. 2017
                 A. K. Wilson, D. E. Woon, K. A. Peterson, T. H. Dunning, Jr., J. Chem. Phys. 110, 7667 (1999)
             Y : Obtained from the ccRepo (grant-hill.group.shef.ac.uk/ccrepo) Feb. 2017
                 K. A. Peterson, D. Figgen, M. Dolg, H. Stoll, J. Chem. Phys. 126, 124101 (2007)
        Ag, Au : Obtained from the Peterson Research Group Website (tyr0.chem.wsu.edu/~kipeters) Feb. 2017
                 K. A. Peterson, C. Puzzarini, Theor. Chem. Acc. 114, 283 (2005)

----- AuxC basis set information -----
Your calculation utilizes the auxiliary basis: cc-pVTZ/C 
  Obtained from the EMSL Basis Set Exchange (bse.pnl.gov) Feb. 2017
  H-He, B-F, Al-Ar, Ga-Kr : F. Weigend, A. Kohn, C. Hattig, J. Chem. Phys. 116, 3175 (2002)
             Li-Be, Na-Mg : C. Haettig, Phys. Chem. Chem. Phys. 7, 59 (2005)
                       Ne : C. Haettig, Phys. Chem. Chem. Phys. 7, 59 (2005)
                            F. Weigend, A. Kohn, C. Hattig, J. Chem. Phys. 116, 3175 (2002)
                    Sc-Zn : J. G. Hill, J. A. Platts, J. Chem. Phys. 128, 044104 (2008)

================================================================================
                                        WARNINGS
                       Please study these warnings very carefully!
================================================================================


WARNING: No MP2 level density has been requested!
         To caclulate MP2 level properties use
         %mp2 Density relaxed end
         or
         %mp2 Density unrelaxed end

INFO   : the flag for use of LIBINT has been found!

================================================================================
                                       INPUT FILE
================================================================================
NAME = input.inp
|  1> ! RI-MP2 cc-pVTZ cc-pVTZ/C TightSCF FrozenCore
|  2> 
|  3> %pal nprocs 24 end
|  4> %maxcore 8000
|  5> %scf ConvForced true end
|  6> 
|  7> *xyz  0  1
|  8> O     0.00000     0.00000     0.00000
|  9> H     0.07938     0.32993    -0.95720
| 10> C    -1.10074    -0.68898     0.29082
| 11> H    -1.53782    -0.32823     1.21678
| 12> H    -0.92164    -1.78574     0.38104
| 13> H    -1.84459    -0.62452    -0.51254
| 14> O     0.11192     1.29085    -2.79603
| 15> H     0.45514     2.21011    -2.55833
| 16> C     1.23804     0.45369    -2.90404
| 17> H     1.00442    -0.51965    -2.55018
| 18> H     1.96891     1.03058    -2.35721
| 19> H     1.52913     0.49481    -3.90650
| 20> O     0.60738     1.32524     3.02857
| 21> H     0.00715     1.10352     2.24369
| 22> C     1.07232     0.10038     3.57103
| 23> H     1.48362     0.28069     4.56337
| 24> H     1.89926    -0.33761     2.90227
| 25> H     0.21375    -0.52619     3.65339
| 26> O    -2.28658     2.26908     2.98672
| 27> H    -2.26719     2.71794     3.89051
| 28> C    -3.32626     2.69705     2.14699
| 29> H    -3.72800     1.88348     1.60038
| 30> H    -3.00787     3.45914     1.52105
| 31> H    -4.13928     3.12202     2.74459
| 32> O     1.54776     4.27049    -1.41013
| 33> H     1.39573     5.12757    -1.01688
| 34> C     1.91389     3.34608    -0.35610
| 35> H     2.33912     2.42277    -0.82760
| 36> H     0.99622     3.05647     0.26237
| 37> H     2.67976     3.73859     0.36998
| 38> O    -0.20106     4.54827     1.93448
| 39> H     0.12005     3.74660     2.35948
| 40> C    -0.97167     5.25054     2.89065
| 41> H    -1.36469     6.20718     2.43822
| 42> H    -0.38348     5.53247     3.78765
| 43> H    -1.87763     4.61867     3.06542
| 44> O    -4.43983     1.40935    -1.84039
| 45> H    -4.51646     1.98031    -2.60341
| 46> C    -3.91008     0.24274    -2.35388
| 47> H    -4.26812    -0.64992    -1.80846
| 48> H    -2.87193     0.34671    -2.29077
| 49> H    -4.18099     0.20547    -3.38977
| 50> O     2.89219     3.19684     2.78182
| 51> H     2.26750     2.49812     3.10905
| 52> C     3.98734     3.15245     3.63796
| 53> H     4.08352     4.05961     4.20113
| 54> H     4.85225     2.95991     3.00258
| 55> H     3.78917     2.31113     4.30166
| 56> O     4.62888    -1.73279    -1.56421
| 57> H     5.00771    -2.45466    -0.98660
| 58> C     3.41546    -1.57057    -1.05541
| 59> H     3.13857    -0.50430    -1.05321
| 60> H     3.52372    -1.92748    -0.00192
| 61> H     2.69649    -2.20576    -1.54980
| 62> O    -2.09795    -2.11934    -4.26273
| 63> H    -2.88247    -2.57756    -3.89259
| 64> C    -1.00823    -3.00751    -4.00972
| 65> H    -0.00491    -2.53729    -4.26006
| 66> H    -1.11250    -3.87715    -4.65697
| 67> H    -0.92249    -3.33260    -2.91235
| 68> O    -2.24629     4.66297    -0.67806
| 69> H    -1.37674     4.20478    -0.75367
| 70> C    -2.03200     6.02863    -0.71354
| 71> H    -3.04215     6.51116    -0.72653
| 72> H    -1.36497     6.28193    -1.57442
| 73> H    -1.54659     6.37631     0.18246
| 74> O    -2.84379    -0.48385     4.62765
| 75> H    -2.81687     0.41978     4.25721
| 76> C    -2.68823    -1.47448     3.62715
| 77> H    -2.96033    -2.47323     4.11701
| 78> H    -1.65514    -1.56939     3.26990
| 79> H    -3.32836    -1.22773     2.75991
| 80> O     2.67037    -1.89830    -4.39235
| 81> H     3.56547    -1.83721    -4.07318
| 82> C     2.76534    -2.84797    -5.38976
| 83> H     1.81084    -3.38339    -5.52932
| 84> H     3.47468    -3.57815    -5.10692
| 85> H     3.01890    -2.36760    -6.36874
| 86> O    -0.36876    -3.24019     4.58647
| 87> H     0.57256    -3.31397     4.84359
| 88> C    -0.77622    -4.49497     4.31793
| 89> H    -1.85278    -4.61143     4.55675
| 90> H    -0.15173    -5.21174     4.90488
| 91> H    -0.59901    -4.70624     3.26431
| 92> O    -3.91375    -3.62126    -1.84497
| 93> H    -4.66793    -3.77583    -2.37910
| 94> C    -4.18822    -4.02898    -0.54663
| 95> H    -3.56068    -4.89479    -0.24836
| 96> H    -5.22551    -4.31632    -0.51263
| 97> H    -4.04861    -3.21638     0.09937
| 98> O     1.97226    -5.45035    -2.35088
| 99> H     1.48863    -6.26025    -2.34702
|100> C     3.40429    -5.84361    -2.45368
|101> H     4.08547    -5.45425    -1.69100
|102> H     3.80621    -5.44741    -3.37201
|103> H     3.51542    -6.93676    -2.46875
|104> O     0.96588     6.29710     0.05500
|105> H     0.68084     5.80523     0.89095
|106> C     1.82942     7.35765     0.46912
|107> H     2.08215     7.96547    -0.36438
|108> H     2.72950     6.87847     0.84554
|109> H     1.34007     8.00792     1.22985
|110> O     3.32400    -5.22471     1.85717
|111> H     3.20280    -5.56813     2.72615
|112> C     4.57973    -4.62096     1.81972
|113> H     4.60341    -3.66337     1.34835
|114> H     5.30091    -5.29795     1.47129
|115> H     4.83651    -4.37689     2.89777
|116> O     0.35552    -6.81914     0.82476
|117> H     0.92998    -7.13285     1.52124
|118> C     0.64956    -5.42906     0.66014
|119> H    -0.07280    -4.88298     0.03482
|120> H     1.57420    -5.34483     0.11870
|121> H     0.88080    -5.00006     1.56231
|122> O     5.14486     3.89778    -2.62299
|123> H     6.10270     3.99770    -2.63314
|124> C     4.79727     3.12110    -3.79631
|125> H     4.14971     3.70824    -4.40072
|126> H     4.39538     2.18810    -3.49348
|127> H     5.71744     2.89670    -4.38361
|128> 
|129> *
|130> 
|131>                          ****END OF INPUT****
================================================================================

                       ****************************
                       * Single Point Calculation *
                       ****************************

---------------------------------
CARTESIAN COORDINATES (ANGSTROEM)
---------------------------------
  O      0.000000    0.000000    0.000000
  H      0.079380    0.329930   -0.957200
  C     -1.100740   -0.688980    0.290820
  H     -1.537820   -0.328230    1.216780
  H     -0.921640   -1.785740    0.381040
  H     -1.844590   -0.624520   -0.512540
  O      0.111920    1.290850   -2.796030
  H      0.455140    2.210110   -2.558330
  C      1.238040    0.453690   -2.904040
  H      1.004420   -0.519650   -2.550180
  H      1.968910    1.030580   -2.357210
  H      1.529130    0.494810   -3.906500
  O      0.607380    1.325240    3.028570
  H      0.007150    1.103520    2.243690
  C      1.072320    0.100380    3.571030
  H      1.483620    0.280690    4.563370
  H      1.899260   -0.337610    2.902270
  H      0.213750   -0.526190    3.653390
  O     -2.286580    2.269080    2.986720
  H     -2.267190    2.717940    3.890510
  C     -3.326260    2.697050    2.146990
  H     -3.728000    1.883480    1.600380
  H     -3.007870    3.459140    1.521050
  H     -4.139280    3.122020    2.744590
  O      1.547760    4.270490   -1.410130
  H      1.395730    5.127570   -1.016880
  C      1.913890    3.346080   -0.356100
  H      2.339120    2.422770   -0.827600
  H      0.996220    3.056470    0.262370
  H      2.679760    3.738590    0.369980
  O     -0.201060    4.548270    1.934480
  H      0.120050    3.746600    2.359480
  C     -0.971670    5.250540    2.890650
  H     -1.364690    6.207180    2.438220
  H     -0.383480    5.532470    3.787650
  H     -1.877630    4.618670    3.065420
  O     -4.439830    1.409350   -1.840390
  H     -4.516460    1.980310   -2.603410
  C     -3.910080    0.242740   -2.353880
  H     -4.268120   -0.649920   -1.808460
  H     -2.871930    0.346710   -2.290770
  H     -4.180990    0.205470   -3.389770
  O      2.892190    3.196840    2.781820
  H      2.267500    2.498120    3.109050
  C      3.987340    3.152450    3.637960
  H      4.083520    4.059610    4.201130
  H      4.852250    2.959910    3.002580
  H      3.789170    2.311130    4.301660
  O      4.628880   -1.732790   -1.564210
  H      5.007710   -2.454660   -0.986600
  C      3.415460   -1.570570   -1.055410
  H      3.138570   -0.504300   -1.053210
  H      3.523720   -1.927480   -0.001920
  H      2.696490   -2.205760   -1.549800
  O     -2.097950   -2.119340   -4.262730
  H     -2.882470   -2.577560   -3.892590
  C     -1.008230   -3.007510   -4.009720
  H     -0.004910   -2.537290   -4.260060
  H     -1.112500   -3.877150   -4.656970
  H     -0.922490   -3.332600   -2.912350
  O     -2.246290    4.662970   -0.678060
  H     -1.376740    4.204780   -0.753670
  C     -2.032000    6.028630   -0.713540
  H     -3.042150    6.511160   -0.726530
  H     -1.364970    6.281930   -1.574420
  H     -1.546590    6.376310    0.182460
  O     -2.843790   -0.483850    4.627650
  H     -2.816870    0.419780    4.257210
  C     -2.688230   -1.474480    3.627150
  H     -2.960330   -2.473230    4.117010
  H     -1.655140   -1.569390    3.269900
  H     -3.328360   -1.227730    2.759910
  O      2.670370   -1.898300   -4.392350
  H      3.565470   -1.837210   -4.073180
  C      2.765340   -2.847970   -5.389760
  H      1.810840   -3.383390   -5.529320
  H      3.474680   -3.578150   -5.106920
  H      3.018900   -2.367600   -6.368740
  O     -0.368760   -3.240190    4.586470
  H      0.572560   -3.313970    4.843590
  C     -0.776220   -4.494970    4.317930
  H     -1.852780   -4.611430    4.556750
  H     -0.151730   -5.211740    4.904880
  H     -0.599010   -4.706240    3.264310
  O     -3.913750   -3.621260   -1.844970
  H     -4.667930   -3.775830   -2.379100
  C     -4.188220   -4.028980   -0.546630
  H     -3.560680   -4.894790   -0.248360
  H     -5.225510   -4.316320   -0.512630
  H     -4.048610   -3.216380    0.099370
  O      1.972260   -5.450350   -2.350880
  H      1.488630   -6.260250   -2.347020
  C      3.404290   -5.843610   -2.453680
  H      4.085470   -5.454250   -1.691000
  H      3.806210   -5.447410   -3.372010
  H      3.515420   -6.936760   -2.468750
  O      0.965880    6.297100    0.055000
  H      0.680840    5.805230    0.890950
  C      1.829420    7.357650    0.469120
  H      2.082150    7.965470   -0.364380
  H      2.729500    6.878470    0.845540
  H      1.340070    8.007920    1.229850
  O      3.324000   -5.224710    1.857170
  H      3.202800   -5.568130    2.726150
  C      4.579730   -4.620960    1.819720
  H      4.603410   -3.663370    1.348350
  H      5.300910   -5.297950    1.471290
  H      4.836510   -4.376890    2.897770
  O      0.355520   -6.819140    0.824760
  H      0.929980   -7.132850    1.521240
  C      0.649560   -5.429060    0.660140
  H     -0.072800   -4.882980    0.034820
  H      1.574200   -5.344830    0.118700
  H      0.880800   -5.000060    1.562310
  O      5.144860    3.897780   -2.622990
  H      6.102700    3.997700   -2.633140
  C      4.797270    3.121100   -3.796310
  H      4.149710    3.708240   -4.400720
  H      4.395380    2.188100   -3.493480
  H      5.717440    2.896700   -4.383610

----------------------------
CARTESIAN COORDINATES (A.U.)
----------------------------
  NO LB      ZA    FRAG     MASS         X           Y           Z
   0 O     8.0000    0    15.999    0.000000    0.000000    0.000000
   1 H     1.0000    0     1.008    0.150006    0.623477   -1.808846
   2 C     6.0000    0    12.011   -2.080097   -1.301984    0.549570
   3 H     1.0000    0     1.008   -2.906059   -0.620265    2.299381
   4 H     1.0000    0     1.008   -1.741647   -3.374560    0.720061
   5 H     1.0000    0     1.008   -3.485770   -1.180172   -0.968560
   6 O     8.0000    0    15.999    0.211498    2.439353   -5.283731
   7 H     1.0000    0     1.008    0.860090    4.176503   -4.834543
   8 C     6.0000    0    12.011    2.339557    0.857350   -5.487840
   9 H     1.0000    0     1.008    1.898079   -0.981996   -4.819142
  10 H     1.0000    0     1.008    3.720701    1.947514   -4.454481
  11 H     1.0000    0     1.008    2.889637    0.935055   -7.382215
  12 O     8.0000    0    15.999    1.147782    2.504341    5.723168
  13 H     1.0000    0     1.008    0.013512    2.085351    4.239960
  14 C     6.0000    0    12.011    2.026391    0.189691    6.748269
  15 H     1.0000    0     1.008    2.803635    0.530427    8.623520
  16 H     1.0000    0     1.008    3.589081   -0.637990    5.484495
  17 H     1.0000    0     1.008    0.403929   -0.994355    6.903907
  18 O     8.0000    0    15.999   -4.321010    4.287940    5.644083
  19 H     1.0000    0     1.008   -4.284368    5.136162    7.351998
  20 C     6.0000    0    12.011   -6.285720    5.096686    4.057223
  21 H     1.0000    0     1.008   -7.044899    3.559261    3.024280
  22 H     1.0000    0     1.008   -5.684051    6.536827    2.874368
  23 H     1.0000    0     1.008   -7.822106    5.899763    5.186523
  24 O     8.0000    0    15.999    2.924843    8.070057   -2.664760
  25 H     1.0000    0     1.008    2.637547    9.689703   -1.921625
  26 C     6.0000    0    12.011    3.616728    6.323175   -0.672931
  27 H     1.0000    0     1.008    4.420296    4.578372   -1.563937
  28 H     1.0000    0     1.008    1.882583    5.775891    0.495807
  29 H     1.0000    0     1.008    5.064013    7.064911    0.699161
  30 O     8.0000    0    15.999   -0.379948    8.594985    3.655637
  31 H     1.0000    0     1.008    0.226862    7.080048    4.458771
  32 C     6.0000    0    12.011   -1.836190    9.922083    5.462537
  33 H     1.0000    0     1.008   -2.578890   11.729870    4.607568
  34 H     1.0000    0     1.008   -0.724672   10.454853    7.157621
  35 H     1.0000    0     1.008   -3.548206    8.728021    5.792804
  36 O     8.0000    0    15.999   -8.390063    2.663286   -3.477833
  37 H     1.0000    0     1.008   -8.534872    3.742244   -4.919732
  38 C     6.0000    0    12.011   -7.388980    0.458712   -4.448189
  39 H     1.0000    0     1.008   -8.065578   -1.228171   -3.417494
  40 H     1.0000    0     1.008   -5.427161    0.655187   -4.328928
  41 H     1.0000    0     1.008   -7.900926    0.388282   -6.405737
  42 O     8.0000    0    15.999    5.465447    6.041152    5.256878
  43 H     1.0000    0     1.008    4.284954    4.720763    5.875253
  44 C     6.0000    0    12.011    7.534981    5.957267    6.874748
  45 H     1.0000    0     1.008    7.716734    7.671551    7.938985
  46 H     1.0000    0     1.008    9.169424    5.593419    5.674054
  47 H     1.0000    0     1.008    7.160494    4.367403    8.128959
  48 O     8.0000    0    15.999    8.747316   -3.274499   -2.955929
  49 H     1.0000    0     1.008    9.463200   -4.638635   -1.864404
  50 C     6.0000    0    12.011    6.454284   -2.967947   -1.994436
  51 H     1.0000    0     1.008    5.931038   -0.952989   -1.990278
  52 H     1.0000    0     1.008    6.658866   -3.642409   -0.003628
  53 H     1.0000    0     1.008    5.095628   -4.168282   -2.928698
  54 O     8.0000    0    15.999   -3.964551   -4.004972   -8.055392
  55 H     1.0000    0     1.008   -5.447079   -4.870882   -7.355929
  56 C     6.0000    0    12.011   -1.905279   -5.683370   -7.577273
  57 H     1.0000    0     1.008   -0.009279   -4.794783   -8.050347
  58 H     1.0000    0     1.008   -2.102320   -7.326752   -8.800398
  59 H     1.0000    0     1.008   -1.743253   -6.297701   -5.503544
  60 O     8.0000    0    15.999   -4.244873    8.811736   -1.281348
  61 H     1.0000    0     1.008   -2.601662    7.945883   -1.424230
  62 C     6.0000    0    12.011   -3.839924   11.392460   -1.348395
  63 H     1.0000    0     1.008   -5.748830   12.304309   -1.372943
  64 H     1.0000    0     1.008   -2.579419   11.871127   -2.975223
  65 H     1.0000    0     1.008   -2.922632   12.049480    0.344799
  66 O     8.0000    0    15.999   -5.373984   -0.914344    8.744991
  67 H     1.0000    0     1.008   -5.323113    0.793269    8.044961
  68 C     6.0000    0    12.011   -5.080018   -2.786363    6.854320
  69 H     1.0000    0     1.008   -5.594213   -4.673727    7.780021
  70 H     1.0000    0     1.008   -3.127761   -2.965717    6.179215
  71 H     1.0000    0     1.008   -6.289689   -2.320073    5.215474
  72 O     8.0000    0    15.999    5.046268   -3.587267   -8.300339
  73 H     1.0000    0     1.008    6.737762   -3.471824   -7.697195
  74 C     6.0000    0    12.011    5.225735   -5.381883  -10.185170
  75 H     1.0000    0     1.008    3.421992   -6.393681  -10.448901
  76 H     1.0000    0     1.008    6.566194   -6.761724   -9.650680
  77 H     1.0000    0     1.008    5.704894   -4.474116  -12.035174
  78 O     8.0000    0    15.999   -0.696855   -6.123072    8.667172
  79 H     1.0000    0     1.008    1.081982   -6.262496    9.153059
  80 C     6.0000    0    12.011   -1.466843   -8.494262    8.159705
  81 H     1.0000    0     1.008   -3.501247   -8.714340    8.611010
  82 H     1.0000    0     1.008   -0.286728   -9.848761    9.268880
  83 H     1.0000    0     1.008   -1.131965   -8.893505    6.168652
  84 O     8.0000    0    15.999   -7.395916   -6.843190   -3.486488
  85 H     1.0000    0     1.008   -8.821109   -7.135285   -4.495847
  86 C     6.0000    0    12.011   -7.914589   -7.613669   -1.032981
  87 H     1.0000    0     1.008   -6.728710   -9.249813   -0.469332
  88 H     1.0000    0     1.008   -9.874783   -8.156663   -0.968730
  89 H     1.0000    0     1.008   -7.650764   -6.078077    0.187782
  90 O     8.0000    0    15.999    3.727031  -10.299669   -4.442519
  91 H     1.0000    0     1.008    2.813103  -11.830158   -4.435225
  92 C     6.0000    0    12.011    6.433176  -11.042823   -4.636783
  93 H     1.0000    0     1.008    7.720419  -10.307039   -3.195527
  94 H     1.0000    0     1.008    7.192695  -10.294113   -6.372175
  95 H     1.0000    0     1.008    6.643181  -13.108577   -4.665261
  96 O     8.0000    0    15.999    1.825249   11.899794    0.103935
  97 H     1.0000    0     1.008    1.286601   10.970295    1.683651
  98 C     6.0000    0    12.011    3.457103   13.903943    0.886508
  99 H     1.0000    0     1.008    3.934693   15.052557   -0.688578
 100 H     1.0000    0     1.008    5.158007   12.998425    1.597839
 101 H     1.0000    0     1.008    2.532365   15.132776    2.324080
 102 O     8.0000    0    15.999    6.281450   -9.873271    3.509543
 103 H     1.0000    0     1.008    6.052415  -10.522241    5.151677
 104 C     6.0000    0    12.011    8.654435   -8.732349    3.438772
 105 H     1.0000    0     1.008    8.699184   -6.922766    2.548012
 106 H     1.0000    0     1.008   10.017268  -10.011675    2.780335
 107 H     1.0000    0     1.008    9.139679   -8.271123    5.475992
 108 O     8.0000    0    15.999    0.671835  -12.886307    1.558571
 109 H     1.0000    0     1.008    1.757408  -13.479133    2.874727
 110 C     6.0000    0    12.011    1.227491  -10.259437    1.247484
 111 H     1.0000    0     1.008   -0.137572   -9.227495    0.065800
 112 H     1.0000    0     1.008    2.974807  -10.100265    0.224310
 113 H     1.0000    0     1.008    1.664471   -9.448744    2.952338
 114 O     8.0000    0    15.999    9.722376    7.365737   -4.956733
 115 H     1.0000    0     1.008   11.532432    7.554558   -4.975913
 116 C     6.0000    0    12.011    9.065526    5.898024   -7.173986
 117 H     1.0000    0     1.008    7.841815    7.007558   -8.316156
 118 H     1.0000    0     1.008    8.306064    4.134910   -6.601720
 119 H     1.0000    0     1.008   10.804396    5.473970   -8.283822

--------------------------------
INTERNAL COORDINATES (ANGSTROEM)
--------------------------------
 O      0   0   0     0.000000000000     0.00000000     0.00000000
 H      1   0   0     1.015572168435     0.00000000     0.00000000
 C      1   2   0     1.330751013676   116.02914187     0.00000000
 H      3   1   2     1.085624894013   110.32676478   226.97018052
 H      3   1   2     1.114943476594   113.21027486   104.75560020
 H      3   1   2     1.096747556961   111.74631582   348.91731465
 O      2   1   3     2.075023341290   170.71867741    95.26927636
 H      7   2   1     1.009623794292   102.61135709    43.04995979
 C      7   2   1     1.407355420674    78.76067297   147.88722191
 H      9   7   2     1.061690142932   110.10199624    44.55146698
 H      9   7   2     1.079812982835   100.65706816   279.23581601
 H      9   7   2     1.044677124331   105.85423052   169.00948886
 O      4   3   1     3.258593114367   112.19749998   340.21445365
 H     13   4   3     1.012656124111    21.21226593    64.73259710
 C     13   4   3     1.417996500278    89.44129772   275.52068972
 H     15  13   4     1.089228195421   109.22900680   206.85460155
 H     15  13   4     1.150176047960   110.01353821    87.56851620
 H     15  13   4     1.066074846997   105.85320575   324.46713110
 O     14  13   4     2.678025580050   101.38098069    89.22783436
 H     19  14  13     1.009300567621   115.18566649   358.36890592
 C     19  14  13     1.403295869088   126.96120008   156.34603232
 H     21  19  14     1.059279785798   110.82646741    60.62066671
 H     21  19  14     1.036317636538   110.98262541   295.90805941
 H     21  19  14     1.094863818609   109.99390985   179.16557867
 O      8   7   2     2.599489843950   165.59192632    19.24453338
 H     25   8   7     0.955167425010   145.70696178   244.82489996
 C     25   8   7     1.448987324272    85.51782998     1.09631904
 H     27  25   8     1.120550828388   108.38971195    46.19975205
 H     27  25   8     1.143895677892   110.61638499   286.91807649
 H     27  25   8     1.125972079316   114.74329040   166.32196689
 O     29  27  25     2.540649226182   125.81924353   286.92871564
 H     31  29  27     0.962502686230    69.16563204   239.01794729
 C     31  29  27     1.414667449933   173.22876060   179.82237220
 H     33  31  32     1.128856817714   109.84327977   179.54386719
 H     33  31  32     1.109081151675   112.57857512    60.34548341
 H     33  31  32     1.118287875013   105.45248985   292.24296909
 O     22  21  19     3.545475905813   132.81504361   229.30423868
 H     37  22  21     0.956068511614   135.29531219   345.45948566
 C     37  22  21     1.380320953510   113.39022730   129.22211488
 H     39  37  22     1.105675130226   111.99704961    57.72361061
 H     39  37  22     1.045250235829   105.94121617   295.52882758
 H     39  37  22     1.071377325269   106.98022338   180.21627987
 O     30  27  25     2.481046503595   127.51579649   148.34364809
 H     43  30  27     0.992736977955   114.84955513     5.25210715
 C     43  30  27     1.390791031823   132.28327992   150.69159461
 H     45  43  30     1.072077565711   111.53092033    97.23327839
 H     45  43  30     1.090343388158   105.75611244   334.50520963
 H     45  43  30     1.089765287252   104.85387543   216.80462340
 O     11   9   7     3.916695438479   100.67695429   161.03362614
 H     49  11   9     0.999120502192   152.16636291   270.05406632
 C     49  11   9     1.325737856742    50.93319340   288.57309069
 H     51  49  11     1.101637247464   110.44145423   330.47916099
 H     51  49  11     1.117562595920   103.53505750   213.49835374
 H     51  49  11     1.079261631441   111.21750258    97.79425197
 O     42  39  37     3.241273876009    97.05673871   165.07991522
 H     55  42  39     0.981040681318    73.70826990    83.25528798
 C     55  42  39     1.428408095539   152.69229002   352.79294633
 H     57  55  42     1.135970064042   112.17211251   270.70945707
 H     57  55  42     1.089072323126   108.55401683   153.29548094
 H     57  55  42     1.147717636268   113.73269478    29.93143753
 O     23  21  19     2.620170902327   159.08488528   106.11552994
 H     61  23  21     0.985785042847    96.15469449   290.55540678
 C     61  23  21     1.382825466247   121.35375847   174.25823290
 H     63  61  23     1.119556592361   106.62622098   284.39121853
 H     63  61  23     1.118125344181   109.62901931   158.60063229
 H     63  61  23     1.076717349400   111.55596860    39.79973315
 O     18  15  13     3.209287471511   141.53374962   314.78423439
 H     67  18  15     0.976983959387    82.57925860    36.79380037
 C     67  18  15     1.416526371269    70.83629274   153.32470914
 H     69  67  18     1.145208623832   106.36095734   118.83975193
 H     69  67  18     1.097228517083   113.19484043     1.97876347
 H     69  67  18     1.105783521762   109.53071613   241.40196590
 O     12   9   7     2.695450691851   104.83242454   209.31675389
 H     73  12   9     0.952263349605   106.29652783   277.99306877
 C     73  12   9     1.380477858533   140.36504651   142.35457143
 H     75  73  12     1.103277761944   111.45238242   289.10208236
 H     75  73  12     1.056562602783   109.15909359   172.08723351
 H     75  73  12     1.119575745941   110.62152074    48.10561651
 O     71  69  67     2.485900784283   111.89582020    90.39716364
 H     79  71  69     0.978589559110   133.43961373   212.17677432
 C     79  71  69     1.346332140150   111.35586205    71.43039750
 H     81  79  71     1.108863994185   110.41110321   300.63201504
 H     81  79  71     1.117254355776   108.90319300   178.22998967
 H     81  79  71     1.089106744722   108.93596037    61.82447071
 O     56  55  42     2.519046603936   145.85185937   264.96229573
 H     85  56  55     0.937002782386    86.24451939   178.14327057
 C     85  56  55     1.388256509043   164.32950982    11.27648828
 H     87  85  56     1.110134406547   111.62748771   280.26859854
 H     87  85  56     1.076889418511   107.35732003   160.69755295
 H     87  85  56     1.047437688887   108.82019412    43.55465035
 O     54  51  49     3.419590988320   143.78638784    56.47780509
 H     91  54  51     0.943319079898   157.25719466   116.20970405
 C     91  54  51     1.488600412636    93.61770933   328.85749986
 H     93  91  54     1.094206646114   117.17663690    41.82702852
 H     93  91  54     1.077888730482   108.68937099   285.23119180
 H     93  91  54     1.098887575824   111.16377935   165.95813514
 O     26  25   8     1.643623490280   161.55074338    76.51111210
 H     97  26  25     1.010938327001   105.47359310     3.73892240
 C     97  26  25     1.428972710901   123.99019591   127.23576309
 H     99  97  26     1.062092206590   109.94427603    62.69798502
 H     99  97  26     1.086945028601   105.87799546   304.99425179
 H     99  97  26     1.114012849253   111.44867422   182.21833891
 O     94  93  91     3.636211699200   124.90629890    41.44369319
 H    103  94  93     0.942206440649   154.67290897    76.11909060
 C    103  94  93     1.393834422699    79.19085624   184.00284892
 H    105 103  94     1.067580923115   114.85836722    70.32799941
 H    105 103  94     1.048722802937   110.41671106   298.80389981
 H    105 103  94     1.134767789374   105.75373149   182.93227747
 O     84  81  79     3.365542769510   150.36286482   140.66947325
 H    109  84  81     0.955773323597    81.27548307   327.37409556
 C    109  84  81     1.430343200914    62.06938697   213.72223942
 H    111 109  84     1.100469190118   114.37545549   262.32331206
 H    111 109  84     1.074807469317   108.11894042   147.17312409
 H    111 109  84     1.025389509650   110.59128679    35.69198838
 O     28  27  25     3.642973606794    99.55654074    59.52545336
 H    115  28  27     0.963091114329   144.40784383   106.32829941
 C    115  28  27     1.449389682901    89.84492467   225.46459225
 H    117 115  28     1.062722344406   108.08815420    92.14212507
 H    117 115  28     1.060052159566   109.34770210   326.66102264
 H    117 115  28     1.114445816942   109.66373424   210.06071170

---------------------------
INTERNAL COORDINATES (A.U.)
---------------------------
 O      0   0   0     0.000000000000     0.00000000     0.00000000
 H      1   0   0     1.919153267575     0.00000000     0.00000000
 C      1   2   0     2.514754968286   116.02914187     0.00000000
 H      3   1   2     2.051533733851   110.32676478   226.97018052
 H      3   1   2     2.106937825565   113.21027486   104.75560020
 H      3   1   2     2.072552520704   111.74631582   348.91731465
 O      2   1   3     3.921225836533   170.71867741    95.26927636
 H      7   2   1     1.907912469502   102.61135709    43.04995979
 C      7   2   1     2.659516318163    78.76067297   147.88722191
 H      9   7   2     2.006303609226   110.10199624    44.55146698
 H      9   7   2     2.040550813412   100.65706816   279.23581601
 H      9   7   2     1.974153663358   105.85423052   169.00948886
 O      4   3   1     6.157848568035   112.19749998   340.21445365
 H     13   4   3     1.913642742408    21.21226593    64.73259710
 C     13   4   3     2.679625044384    89.44129772   275.52068972
 H     15  13   4     2.058342986691   109.22900680   206.85460155
 H     15  13   4     2.173517736440   110.01353821    87.56851620
 H     15  13   4     2.014589499087   105.85320575   324.46713110
 O     14  13   4     5.060734925929   101.38098069    89.22783436
 H     19  14  13     1.907301659615   115.18566649   358.36890592
 C     19  14  13     2.651844877440   126.96120008   156.34603232
 H     21  19  14     2.001748694357   110.82646741    60.62066671
 H     21  19  14     1.958356520810   110.98262541   295.90805941
 H     21  19  14     2.068992771111   109.99390985   179.16557867
 O      8   7   2     4.912323892975   165.59192632    19.24453338
 H     25   8   7     1.805004845311   145.70696178   244.82489996
 C     25   8   7     2.738189214397    85.51782998     1.09631904
 H     27  25   8     2.117534184791   108.38971195    46.19975205
 H     27  25   8     2.161649556992   110.61638499   286.91807649
 H     27  25   8     2.127778864350   114.74329040   166.32196689
 O     29  27  25     4.801131239843   125.81924353   286.92871564
 H     31  29  27     1.818866480138    69.16563204   239.01794729
 C     31  29  27     2.673334050946   173.22876060   179.82237220
 H     33  31  32     2.133230229890   109.84327977   179.54386719
 H     33  31  32     2.095859636959   112.57857512    60.34548341
 H     33  31  32     2.113257822658   105.45248985   292.24296909
 O     22  21  19     6.699978476403   132.81504361   229.30423868
 H     37  22  21     1.806707652216   135.29531219   345.45948566
 C     37  22  21     2.608428579048   113.39022730   129.22211488
 H     39  37  22     2.089423189215   111.99704961    57.72361061
 H     39  37  22     1.975236687133   105.94121617   295.52882758
 H     39  37  22     2.024609730851   106.98022338   180.21627987
 O     30  27  25     4.688498417317   127.51579649   148.34364809
 H     43  30  27     1.876001011352   114.84955513     5.25210715
 C     43  30  27     2.628214159660   132.28327992   150.69159461
 H     45  43  30     2.025932993514   111.53092033    97.23327839
 H     45  43  30     2.060450395551   105.75611244   334.50520963
 H     45  43  30     2.059357943161   104.85387543   216.80462340
 O     11   9   7     7.401481728703   100.67695429   161.03362614
 H     49  11   9     1.888064123928   152.16636291   270.05406632
 C     49  11   9     2.505281474615    50.93319340   288.57309069
 H     51  49  11     2.081792696634   110.44145423   330.47916099
 H     51  49  11     2.111887243803   103.53505750   213.49835374
 H     51  49  11     2.039508910272   111.21750258    97.79425197
 O     42  39  37     6.125119950691    97.05673871   165.07991522
 H     55  42  39     1.853898213926    73.70826990    83.25528798
 C     55  42  39     2.699300108044   152.69229002   352.79294633
 H     57  55  42     2.146672317373   112.17211251   270.70945707
 H     57  55  42     2.058048430742   108.55401683   153.29548094
 H     57  55  42     2.168872011617   113.73269478    29.93143753
 O     23  21  19     4.951405429467   159.08488528   106.11552994
 H     61  23  21     1.862863757896    96.15469449   290.55540678
 C     61  23  21     2.613161422218   121.35375847   174.25823290
 H     63  61  23     2.115655350989   106.62622098   284.39121853
 H     63  61  23     2.112950683899   109.62901931   158.60063229
 H     63  61  23     2.034700914009   111.55596860    39.79973315
 O     18  15  13     6.064674406181   141.53374962   314.78423439
 H     67  18  15     1.846232120476    82.57925860    36.79380037
 C     67  18  15     2.676846903175    70.83629274   153.32470914
 H     69  67  18     2.164130665248   106.36095734   118.83975193
 H     69  67  18     2.073461403615   113.19484043     1.97876347
 H     69  67  18     2.089628019533   109.53071613   241.40196590
 O     12   9   7     5.093663615087   104.83242454   209.31675389
 H     73  12   9     1.799516938123   106.29652783   277.99306877
 C     73  12   9     2.608725086570   140.36504651   142.35457143
 H     75  73  12     2.084892819720   111.45238242   289.10208236
 H     75  73  12     1.996613962603   109.15909359   172.08723351
 H     75  73  12     2.115691546010   110.62152074    48.10561651
 O     71  69  67     4.697671678395   111.89582020    90.39716364
 H     79  71  69     1.849266264234   133.43961373   212.17677432
 C     79  71  69     2.544199030179   111.35586205    71.43039750
 H     81  79  71     2.095449268776   110.41110321   300.63201504
 H     81  79  71     2.111304754347   108.90319300   178.22998967
 H     81  79  71     2.058113478132   108.93596037    61.82447071
 O     56  55  42     4.760308200023   145.85185937   264.96229573
 H     85  56  55     1.770678645433    86.24451939   178.14327057
 C     85  56  55     2.623424605725   164.32950982    11.27648828
 H     87  85  56     2.097850000217   111.62748771   280.26859854
 H     87  85  56     2.035026077503   107.35732003   160.69755295
 H     87  85  56     1.979370374343   108.82019412    43.55465035
 O     54  51  49     6.462090457950   143.78638784    56.47780509
 H     91  54  51     1.782614717910   157.25719466   116.20970405
 C     91  54  51     2.813047102724    93.61770933   328.85749986
 H     93  91  54     2.067750895072   117.17663690    41.82702852
 H     93  91  54     2.036914503451   108.68937099   285.23119180
 H     93  91  54     2.076596570276   111.16377935   165.95813514
 O     26  25   8     3.105998263909   161.55074338    76.51111210
 H     97  26  25     1.910396576317   105.47359310     3.73892240
 C     97  26  25     2.700367076450   123.99019591   127.23576309
 H     99  97  26     2.007063399428   109.94427603    62.69798502
 H     99  97  26     2.054028426683   105.87799546   304.99425179
 H     99  97  26     2.105179194757   111.44867422   182.21833891
 O     94  93  91     6.871444276449   124.90629890    41.44369319
 H    103  94  93     1.780512134443   154.67290897    76.11909060
 C    103  94  93     2.633965334933    79.19085624   184.00284892
 H    105 103  94     2.017435570487   114.85836722    70.32799941
 H    105 103  94     1.981798887949   110.41671106   298.80389981
 H    105 103  94     2.144400347511   105.75373149   182.93227747
 O     84  81  79     6.359954126372   150.36286482   140.66947325
 H    109  84  81     1.806149827706    81.27548307   327.37409556
 C    109  84  81     2.702956927243    62.06938697   213.72223942
 H    111 109  84     2.079585388142   114.37545549   262.32331206
 H    111 109  84     2.031091763702   108.11894042   147.17312409
 H    111 109  84     1.937705353834   110.59128679    35.69198838
 O     28  27  25     6.884222429945    99.55654074    59.52545336
 H    115  28  27     1.819978448095   144.40784383   106.32829941
 C    115  28  27     2.738949562014    89.84492467   225.46459225
 H    117 115  28     2.008254187326   108.08815420    92.14212507
 H    117 115  28     2.003208269251   109.34770210   326.66102264
 H    117 115  28     2.105997385115   109.66373424   210.06071170

---------------------
BASIS SET INFORMATION
---------------------
There are 3 groups of distinct atoms

 Group   1 Type O   : 18s5p2d1f contracted to 4s3p2d1f pattern {8811/311/11/1}
 Group   2 Type H   : 5s2p1d contracted to 3s2p1d pattern {311/11/1}
 Group   3 Type C   : 18s5p2d1f contracted to 4s3p2d1f pattern {8811/311/11/1}

Atom   0O    basis set group =>   1
Atom   1H    basis set group =>   2
Atom   2C    basis set group =>   3
Atom   3H    basis set group =>   2
Atom   4H    basis set group =>   2
Atom   5H    basis set group =>   2
Atom   6O    basis set group =>   1
Atom   7H    basis set group =>   2
Atom   8C    basis set group =>   3
Atom   9H    basis set group =>   2
Atom  10H    basis set group =>   2
Atom  11H    basis set group =>   2
Atom  12O    basis set group =>   1
Atom  13H    basis set group =>   2
Atom  14C    basis set group =>   3
Atom  15H    basis set group =>   2
Atom  16H    basis set group =>   2
Atom  17H    basis set group =>   2
Atom  18O    basis set group =>   1
Atom  19H    basis set group =>   2
Atom  20C    basis set group =>   3
Atom  21H    basis set group =>   2
Atom  22H    basis set group =>   2
Atom  23H    basis set group =>   2
Atom  24O    basis set group =>   1
Atom  25H    basis set group =>   2
Atom  26C    basis set group =>   3
Atom  27H    basis set group =>   2
Atom  28H    basis set group =>   2
Atom  29H    basis set group =>   2
Atom  30O    basis set group =>   1
Atom  31H    basis set group =>   2
Atom  32C    basis set group =>   3
Atom  33H    basis set group =>   2
Atom  34H    basis set group =>   2
Atom  35H    basis set group =>   2
Atom  36O    basis set group =>   1
Atom  37H    basis set group =>   2
Atom  38C    basis set group =>   3
Atom  39H    basis set group =>   2
Atom  40H    basis set group =>   2
Atom  41H    basis set group =>   2
Atom  42O    basis set group =>   1
Atom  43H    basis set group =>   2
Atom  44C    basis set group =>   3
Atom  45H    basis set group =>   2
Atom  46H    basis set group =>   2
Atom  47H    basis set group =>   2
Atom  48O    basis set group =>   1
Atom  49H    basis set group =>   2
Atom  50C    basis set group =>   3
Atom  51H    basis set group =>   2
Atom  52H    basis set group =>   2
Atom  53H    basis set group =>   2
Atom  54O    basis set group =>   1
Atom  55H    basis set group =>   2
Atom  56C    basis set group =>   3
Atom  57H    basis set group =>   2
Atom  58H    basis set group =>   2
Atom  59H    basis set group =>   2
Atom  60O    basis set group =>   1
Atom  61H    basis set group =>   2
Atom  62C    basis set group =>   3
Atom  63H    basis set group =>   2
Atom  64H    basis set group =>   2
Atom  65H    basis set group =>   2
Atom  66O    basis set group =>   1
Atom  67H    basis set group =>   2
Atom  68C    basis set group =>   3
Atom  69H    basis set group =>   2
Atom  70H    basis set group =>   2
Atom  71H    basis set group =>   2
Atom  72O    basis set group =>   1
Atom  73H    basis set group =>   2
Atom  74C    basis set group =>   3
Atom  75H    basis set group =>   2
Atom  76H    basis set group =>   2
Atom  77H    basis set group =>   2
Atom  78O    basis set group =>   1
Atom  79H    basis set group =>   2
Atom  80C    basis set group =>   3
Atom  81H    basis set group =>   2
Atom  82H    basis set group =>   2
Atom  83H    basis set group =>   2
Atom  84O    basis set group =>   1
Atom  85H    basis set group =>   2
Atom  86C    basis set group =>   3
Atom  87H    basis set group =>   2
Atom  88H    basis set group =>   2
Atom  89H    basis set group =>   2
Atom  90O    basis set group =>   1
Atom  91H    basis set group =>   2
Atom  92C    basis set group =>   3
Atom  93H    basis set group =>   2
Atom  94H    basis set group =>   2
Atom  95H    basis set group =>   2
Atom  96O    basis set group =>   1
Atom  97H    basis set group =>   2
Atom  98C    basis set group =>   3
Atom  99H    basis set group =>   2
Atom 100H    basis set group =>   2
Atom 101H    basis set group =>   2
Atom 102O    basis set group =>   1
Atom 103H    basis set group =>   2
Atom 104C    basis set group =>   3
Atom 105H    basis set group =>   2
Atom 106H    basis set group =>   2
Atom 107H    basis set group =>   2
Atom 108O    basis set group =>   1
Atom 109H    basis set group =>   2
Atom 110C    basis set group =>   3
Atom 111H    basis set group =>   2
Atom 112H    basis set group =>   2
Atom 113H    basis set group =>   2
Atom 114O    basis set group =>   1
Atom 115H    basis set group =>   2
Atom 116C    basis set group =>   3
Atom 117H    basis set group =>   2
Atom 118H    basis set group =>   2
Atom 119H    basis set group =>   2
---------------------------------
AUXILIARY/C BASIS SET INFORMATION
---------------------------------
There are 3 groups of distinct atoms

 Group   1 Type O   : 8s6p5d3f1g contracted to 8s6p5d3f1g pattern {11111111/111111/11111/111/1}
 Group   2 Type H   : 4s3p2d1f contracted to 4s3p2d1f pattern {1111/111/11/1}
 Group   3 Type C   : 8s6p5d3f1g contracted to 8s6p5d3f1g pattern {11111111/111111/11111/111/1}

Atom   0O    basis set group =>   1
Atom   1H    basis set group =>   2
Atom   2C    basis set group =>   3
Atom   3H    basis set group =>   2
Atom   4H    basis set group =>   2
Atom   5H    basis set group =>   2
Atom   6O    basis set group =>   1
Atom   7H    basis set group =>   2
Atom   8C    basis set group =>   3
Atom   9H    basis set group =>   2
Atom  10H    basis set group =>   2
Atom  11H    basis set group =>   2
Atom  12O    basis set group =>   1
Atom  13H    basis set group =>   2
Atom  14C    basis set group =>   3
Atom  15H    basis set group =>   2
Atom  16H    basis set group =>   2
Atom  17H    basis set group =>   2
Atom  18O    basis set group =>   1
Atom  19H    basis set group =>   2
Atom  20C    basis set group =>   3
Atom  21H    basis set group =>   2
Atom  22H    basis set group =>   2
Atom  23H    basis set group =>   2
Atom  24O    basis set group =>   1
Atom  25H    basis set group =>   2
Atom  26C    basis set group =>   3
Atom  27H    basis set group =>   2
Atom  28H    basis set group =>   2
Atom  29H    basis set group =>   2
Atom  30O    basis set group =>   1
Atom  31H    basis set group =>   2
Atom  32C    basis set group =>   3
Atom  33H    basis set group =>   2
Atom  34H    basis set group =>   2
Atom  35H    basis set group =>   2
Atom  36O    basis set group =>   1
Atom  37H    basis set group =>   2
Atom  38C    basis set group =>   3
Atom  39H    basis set group =>   2
Atom  40H    basis set group =>   2
Atom  41H    basis set group =>   2
Atom  42O    basis set group =>   1
Atom  43H    basis set group =>   2
Atom  44C    basis set group =>   3
Atom  45H    basis set group =>   2
Atom  46H    basis set group =>   2
Atom  47H    basis set group =>   2
Atom  48O    basis set group =>   1
Atom  49H    basis set group =>   2
Atom  50C    basis set group =>   3
Atom  51H    basis set group =>   2
Atom  52H    basis set group =>   2
Atom  53H    basis set group =>   2
Atom  54O    basis set group =>   1
Atom  55H    basis set group =>   2
Atom  56C    basis set group =>   3
Atom  57H    basis set group =>   2
Atom  58H    basis set group =>   2
Atom  59H    basis set group =>   2
Atom  60O    basis set group =>   1
Atom  61H    basis set group =>   2
Atom  62C    basis set group =>   3
Atom  63H    basis set group =>   2
Atom  64H    basis set group =>   2
Atom  65H    basis set group =>   2
Atom  66O    basis set group =>   1
Atom  67H    basis set group =>   2
Atom  68C    basis set group =>   3
Atom  69H    basis set group =>   2
Atom  70H    basis set group =>   2
Atom  71H    basis set group =>   2
Atom  72O    basis set group =>   1
Atom  73H    basis set group =>   2
Atom  74C    basis set group =>   3
Atom  75H    basis set group =>   2
Atom  76H    basis set group =>   2
Atom  77H    basis set group =>   2
Atom  78O    basis set group =>   1
Atom  79H    basis set group =>   2
Atom  80C    basis set group =>   3
Atom  81H    basis set group =>   2
Atom  82H    basis set group =>   2
Atom  83H    basis set group =>   2
Atom  84O    basis set group =>   1
Atom  85H    basis set group =>   2
Atom  86C    basis set group =>   3
Atom  87H    basis set group =>   2
Atom  88H    basis set group =>   2
Atom  89H    basis set group =>   2
Atom  90O    basis set group =>   1
Atom  91H    basis set group =>   2
Atom  92C    basis set group =>   3
Atom  93H    basis set group =>   2
Atom  94H    basis set group =>   2
Atom  95H    basis set group =>   2
Atom  96O    basis set group =>   1
Atom  97H    basis set group =>   2
Atom  98C    basis set group =>   3
Atom  99H    basis set group =>   2
Atom 100H    basis set group =>   2
Atom 101H    basis set group =>   2
Atom 102O    basis set group =>   1
Atom 103H    basis set group =>   2
Atom 104C    basis set group =>   3
Atom 105H    basis set group =>   2
Atom 106H    basis set group =>   2
Atom 107H    basis set group =>   2
Atom 108O    basis set group =>   1
Atom 109H    basis set group =>   2
Atom 110C    basis set group =>   3
Atom 111H    basis set group =>   2
Atom 112H    basis set group =>   2
Atom 113H    basis set group =>   2
Atom 114O    basis set group =>   1
Atom 115H    basis set group =>   2
Atom 116C    basis set group =>   3
Atom 117H    basis set group =>   2
Atom 118H    basis set group =>   2
Atom 119H    basis set group =>   2


           ************************************************************
           *        Program running with 24 parallel MPI-processes    *
           *              working on a common directory               *
           ************************************************************
------------------------------------------------------------------------------
                           ORCA GTO INTEGRAL CALCULATION
------------------------------------------------------------------------------

                         BASIS SET STATISTICS AND STARTUP INFO

 # of primitive gaussian shells          ... 1680
 # of primitive gaussian functions       ... 3280
 # of contracted shells                  ...  880
 # of contracted basis functions         ... 2320
 Highest angular momentum                ...    3
 Maximum contraction depth               ...    8
 Integral package used                   ... LIBINT
 Integral threshhold            Thresh   ...  2.500e-11
 Primitive cut-off              TCut     ...  2.500e-12


------------------------------ INTEGRAL EVALUATION ----------------------------


 * One electron integrals 
 Pre-screening matrix                    ... done
 Shell pair data                         ... done (   0.058 sec)



           ************************************************************
           *        Program running with 24 parallel MPI-processes    *
           *              working on a common directory               *
           ************************************************************
-------------------------------------------------------------------------------
                                 ORCA SCF
-------------------------------------------------------------------------------

------------
SCF SETTINGS
------------
Hamiltonian:
 Ab initio Hamiltonian  Method          .... Hartree-Fock(GTOs)


General Settings:
 Integral files         IntName         .... input
 Hartree-Fock type      HFTyp           .... RHF
 Total Charge           Charge          ....    0
 Multiplicity           Mult            ....    1
 Number of Electrons    NEL             ....  360
 Basis Dimension        Dim             .... 2320
 Nuclear Repulsion      ENuc            ....   5774.6342438859 Eh

Convergence Acceleration:
 DIIS                   CNVDIIS         .... on
   Start iteration      DIISMaxIt       ....    12
   Startup error        DIISStart       ....  0.200000
   # of expansion vecs  DIISMaxEq       ....     5
   Bias factor          DIISBfac        ....   1.050
   Max. coefficient     DIISMaxC        ....  10.000
 Newton-Raphson         CNVNR           .... off
 SOSCF                  CNVSOSCF        .... on
   Start iteration      SOSCFMaxIt      ....   150
   Startup grad/error   SOSCFStart      ....  0.003300
 Level Shifting         CNVShift        .... on
   Level shift para.    LevelShift      ....    0.2500
   Turn off err/grad.   ShiftErr        ....    0.0010
 Zerner damping         CNVZerner       .... off
 Static damping         CNVDamp         .... on
   Fraction old density DampFac         ....    0.7000
   Max. Damping (<1)    DampMax         ....    0.9800
   Min. Damping (>=0)   DampMin         ....    0.0000
   Turn off err/grad.   DampErr         ....    0.1000
 Fernandez-Rico         CNVRico         .... off

SCF Procedure:
 Maximum # iterations   MaxIter         ....   125
 SCF integral mode      SCFMode         .... Direct
   Integral package                     .... LIBINT
 Reset frequency        DirectResetFreq ....    20
 Integral Threshold     Thresh          ....  2.500e-11 Eh
 Primitive CutOff       TCut            ....  2.500e-12 Eh

Convergence Tolerance:
 Convergence Check Mode ConvCheckMode   .... Total+1el-Energy
 Convergence forced     ConvForced      .... 1
 Energy Change          TolE            ....  1.000e-08 Eh
 1-El. energy change                    ....  1.000e-05 Eh
 Orbital Gradient       TolG            ....  1.000e-05
 Orbital Rotation angle TolX            ....  1.000e-05
 DIIS Error             TolErr          ....  5.000e-07


Diagonalization of the overlap matrix:
Smallest eigenvalue                        ... 6.972e-04
Time for diagonalization                   ...    0.767 sec
Threshold for overlap eigenvalues          ... 1.000e-08
Number of eigenvalues below threshold      ... 0
Time for construction of square roots      ...    0.605 sec
Total time needed                          ...    1.389 sec

-------------------
DFT GRID GENERATION
-------------------

General Integration Accuracy     IntAcc      ...  4.340
Radial Grid Type                 RadialGrid  ... Gauss-Chebyshev
Angular Grid (max. acc.)         AngularGrid ... Lebedev-110
Angular grid pruning method      GridPruning ... 3 (G Style)
Weight generation scheme         WeightScheme... Becke
Basis function cutoff            BFCut       ...    1.0000e-11
Integration weight cutoff        WCut        ...    1.0000e-14
Grids for H and He will be reduced by one unit

# of grid points (after initial pruning)     ... 130960 (   0.0 sec)
# of grid points (after weights+screening)   ... 114911 (   0.4 sec)
nearest neighbour list constructed           ...    0.0 sec
Grid point re-assignment to atoms done       ...    0.0 sec
Grid point division into batches done        ...    0.1 sec
Reduced shell lists constructed in    0.4 sec

Total number of grid points                  ...   114911
Total number of batches                      ...     1849
Average number of points per batch           ...       62
Average number of grid points per atom       ...      958
Average number of shells per batch           ...   281.99 (32.04%)
Average number of basis functions per batch  ...   585.63 (25.24%)
Average number of large shells per batch     ...   140.71 (49.90%)
Average number of large basis fcns per batch ...   290.89 (49.67%)
Maximum spatial batch extension              ...   4.72,  4.32,  4.39 au
Average spatial batch extension              ...   0.09,  0.09,  0.08 au

Time for grid setup =    0.826 sec

------------------------------
INITIAL GUESS: MODEL POTENTIAL
------------------------------
Loading Hartree-Fock densities                     ... done
Calculating cut-offs                               ... done
Setting up the integral package                    ... done
Initializing the effective Hamiltonian             ... done
Starting the Coulomb interaction                   ... done (   1.2 sec)
Reading the grid                                   ... done
Mapping shells                                     ... done
Starting the XC term evaluation                    ... done (   0.2 sec)
Transforming the Hamiltonian                       ... done (   0.4 sec)
Diagonalizing the Hamiltonian                      ... done (   0.7 sec)
Back transforming the eigenvectors                 ... done (   0.2 sec)
Now organizing SCF variables                       ... done
                      ------------------
                      INITIAL GUESS DONE (   3.7 sec)
                      ------------------
--------------
SCF ITERATIONS
--------------
ITER       Energy         Delta-E        Max-DP      RMS-DP      [F,P]     Damp
               ***  Starting incremental Fock matrix formation  ***
  0  -2299.2910745370   0.000000000000 0.03178950  0.00022429  0.3105566 0.7000
  1  -2300.1394974314  -0.848422894361 0.02290208  0.00016948  0.1877655 0.7000
                               ***Turning on DIIS***
  2  -2300.6350576299  -0.495560198503 0.01474381  0.00010456  0.1104616 0.7000
  3  -2306.4445026304  -5.809445000535 0.03723651  0.00019790  0.0830518 0.0000
  4  -2301.3579070264   5.086595604016 0.00757831  0.00004069  0.0069021 0.0000
                      *** Initiating the SOSCF procedure ***
                           *** Shutting down DIIS ***
                      *** Re-Reading the Fockian *** 
                      *** Removing any level shift *** 
ITER      Energy       Delta-E        Grad      Rot      Max-DP    RMS-DP
  5  -2301.70060514  -0.3426981108  0.000977  0.000977  0.003103  0.000019
               *** Restarting incremental Fock matrix formation ***
  6  -2301.65252160   0.0480835407  0.000304  0.000349  0.001205  0.000009
  7  -2301.65262850  -0.0001068995  0.000113  0.000231  0.000784  0.000006
  8  -2301.65264722  -0.0000187249  0.000058  0.000037  0.000156  0.000001
  9  -2301.65264883  -0.0000016118  0.000015  0.000010  0.000037  0.000000
 10  -2301.65264894  -0.0000001042  0.000003  0.000007  0.000012  0.000000
                  ***Gradient check signals convergence***
              ***Rediagonalizing the Fockian in SOSCF/NRSCF***

               *****************************************************
               *                     SUCCESS                       *
               *           SCF CONVERGED AFTER  11 CYCLES          *
               *****************************************************


----------------
TOTAL SCF ENERGY
----------------

Total Energy       :        -2301.65264896 Eh          -62631.15268 eV

Components:
Nuclear Repulsion  :         5774.63424389 Eh          157135.78641 eV
Electronic Energy  :        -8076.28689284 Eh         -219766.93909 eV
One Electron Energy:       -14678.58951833 Eh         -399424.72715 eV
Two Electron Energy:         6602.30262548 Eh          179657.78806 eV

Virial components:
Potential Energy   :        -4601.26823650 Eh         -125206.87411 eV
Kinetic Energy     :         2299.61558755 Eh           62575.72143 eV
Virial Ratio       :            2.00088583


---------------
SCF CONVERGENCE
---------------

  Last Energy change         ...   -1.9576e-08  Tolerance :   1.0000e-08
  Last MAX-Density change    ...    4.8458e-06  Tolerance :   1.0000e-07
  Last RMS-Density change    ...    2.7318e-08  Tolerance :   5.0000e-09
  Last Orbital Gradient      ...    1.1210e-06  Tolerance :   1.0000e-05
  Last Orbital Rotation      ...    3.0337e-06  Tolerance :   1.0000e-05

             **** THE GBW FILE WAS UPDATED (input.gbw) ****
             **** DENSITY FILE WAS UPDATED (input.scfp) ****
             **** ENERGY FILE WAS UPDATED (input.en.tmp) ****
             **** THE GBW FILE WAS UPDATED (input.gbw) ****
             **** DENSITY FILE WAS UPDATED (input.scfp) ****
----------------
ORBITAL ENERGIES
----------------

  NO   OCC          E(Eh)            E(eV) 
   0   2.0000     -20.576791      -559.9230 
   1   2.0000     -20.560096      -559.4687 
   2   2.0000     -20.559243      -559.4454 
   3   2.0000     -20.558907      -559.4363 
   4   2.0000     -20.558040      -559.4127 
   5   2.0000     -20.557172      -559.3891 
   6   2.0000     -20.555337      -559.3392 
   7   2.0000     -20.553735      -559.2956 
   8   2.0000     -20.545569      -559.0734 
   9   2.0000     -20.542657      -558.9941 
  10   2.0000     -20.540933      -558.9472 
  11   2.0000     -20.532890      -558.7283 
  12   2.0000     -20.530977      -558.6763 
  13   2.0000     -20.530825      -558.6721 
  14   2.0000     -20.530223      -558.6558 
  15   2.0000     -20.529923      -558.6476 
  16   2.0000     -20.526097      -558.5435 
  17   2.0000     -20.520715      -558.3970 
  18   2.0000     -20.517332      -558.3050 
  19   2.0000     -20.496123      -557.7279 
  20   2.0000     -11.291412      -307.2550 
  21   2.0000     -11.282958      -307.0249 
  22   2.0000     -11.280354      -306.9540 
  23   2.0000     -11.271316      -306.7081 
  24   2.0000     -11.268099      -306.6206 
  25   2.0000     -11.263656      -306.4997 
  26   2.0000     -11.260219      -306.4061 
  27   2.0000     -11.258586      -306.3617 
  28   2.0000     -11.253981      -306.2364 
  29   2.0000     -11.253674      -306.2280 
  30   2.0000     -11.252718      -306.2020 
  31   2.0000     -11.252568      -306.1979 
  32   2.0000     -11.251843      -306.1782 
  33   2.0000     -11.243315      -305.9462 
  34   2.0000     -11.242930      -305.9357 
  35   2.0000     -11.239424      -305.8403 
  36   2.0000     -11.237098      -305.7770 
  37   2.0000     -11.236477      -305.7601 
  38   2.0000     -11.230515      -305.5979 
  39   2.0000     -11.224935      -305.4460 
  40   2.0000      -1.396947       -38.0129 
  41   2.0000      -1.391187       -37.8561 
  42   2.0000      -1.388130       -37.7729 
  43   2.0000      -1.377887       -37.4942 
  44   2.0000      -1.367985       -37.2248 
  45   2.0000      -1.366970       -37.1972 
  46   2.0000      -1.354692       -36.8631 
  47   2.0000      -1.351870       -36.7862 
  48   2.0000      -1.346906       -36.6512 
  49   2.0000      -1.342548       -36.5326 
  50   2.0000      -1.341257       -36.4975 
  51   2.0000      -1.341017       -36.4909 
  52   2.0000      -1.340765       -36.4841 
  53   2.0000      -1.339412       -36.4472 
  54   2.0000      -1.330576       -36.2068 
  55   2.0000      -1.329049       -36.1653 
  56   2.0000      -1.325889       -36.0793 
  57   2.0000      -1.323829       -36.0232 
  58   2.0000      -1.322434       -35.9852 
  59   2.0000      -1.293176       -35.1891 
  60   2.0000      -0.955051       -25.9883 
  61   2.0000      -0.935923       -25.4678 
  62   2.0000      -0.932136       -25.3647 
  63   2.0000      -0.922155       -25.0931 
  64   2.0000      -0.919122       -25.0106 
  65   2.0000      -0.918269       -24.9874 
  66   2.0000      -0.914974       -24.8977 
  67   2.0000      -0.913919       -24.8690 
  68   2.0000      -0.912946       -24.8425 
  69   2.0000      -0.911969       -24.8159 
  70   2.0000      -0.911130       -24.7931 
  71   2.0000      -0.906077       -24.6556 
  72   2.0000      -0.905820       -24.6486 
  73   2.0000      -0.899416       -24.4744 
  74   2.0000      -0.895837       -24.3770 
  75   2.0000      -0.891483       -24.2585 
  76   2.0000      -0.889644       -24.2084 
  77   2.0000      -0.882688       -24.0192 
  78   2.0000      -0.882270       -24.0078 
  79   2.0000      -0.868541       -23.6342 
  80   2.0000      -0.721873       -19.6431 
  81   2.0000      -0.708787       -19.2871 
  82   2.0000      -0.706816       -19.2334 
  83   2.0000      -0.705778       -19.2052 
  84   2.0000      -0.705098       -19.1867 
  85   2.0000      -0.694045       -18.8859 
  86   2.0000      -0.693787       -18.8789 
  87   2.0000      -0.687224       -18.7003 
  88   2.0000      -0.684192       -18.6178 
  89   2.0000      -0.683685       -18.6040 
  90   2.0000      -0.681542       -18.5457 
  91   2.0000      -0.669713       -18.2238 
  92   2.0000      -0.668437       -18.1891 
  93   2.0000      -0.667752       -18.1704 
  94   2.0000      -0.666257       -18.1298 
  95   2.0000      -0.664997       -18.0955 
  96   2.0000      -0.663198       -18.0465 
  97   2.0000      -0.661680       -18.0052 
  98   2.0000      -0.660127       -17.9630 
  99   2.0000      -0.653414       -17.7803 
 100   2.0000      -0.651111       -17.7176 
 101   2.0000      -0.640628       -17.4324 
 102   2.0000      -0.638234       -17.3672 
 103   2.0000      -0.637842       -17.3566 
 104   2.0000      -0.632536       -17.2122 
 105   2.0000      -0.630327       -17.1521 
 106   2.0000      -0.620683       -16.8896 
 107   2.0000      -0.620423       -16.8826 
 108   2.0000      -0.618357       -16.8263 
 109   2.0000      -0.615500       -16.7486 
 110   2.0000      -0.613920       -16.7056 
 111   2.0000      -0.613092       -16.6831 
 112   2.0000      -0.612257       -16.6604 
 113   2.0000      -0.611452       -16.6385 
 114   2.0000      -0.610046       -16.6002 
 115   2.0000      -0.608680       -16.5630 
 116   2.0000      -0.607560       -16.5325 
 117   2.0000      -0.605892       -16.4871 
 118   2.0000      -0.602288       -16.3891 
 119   2.0000      -0.600903       -16.3514 
 120   2.0000      -0.598736       -16.2924 
 121   2.0000      -0.597033       -16.2461 
 122   2.0000      -0.595162       -16.1952 
 123   2.0000      -0.594084       -16.1659 
 124   2.0000      -0.591332       -16.0910 
 125   2.0000      -0.590907       -16.0794 
 126   2.0000      -0.588372       -16.0104 
 127   2.0000      -0.587466       -15.9858 
 128   2.0000      -0.585462       -15.9312 
 129   2.0000      -0.583137       -15.8680 
 130   2.0000      -0.579306       -15.7637 
 131   2.0000      -0.576353       -15.6834 
 132   2.0000      -0.575055       -15.6480 
 133   2.0000      -0.569343       -15.4926 
 134   2.0000      -0.566389       -15.4122 
 135   2.0000      -0.562246       -15.2995 
 136   2.0000      -0.561348       -15.2750 
 137   2.0000      -0.558011       -15.1842 
 138   2.0000      -0.554901       -15.0996 
 139   2.0000      -0.535545       -14.5729 
 140   2.0000      -0.516555       -14.0562 
 141   2.0000      -0.512689       -13.9510 
 142   2.0000      -0.504787       -13.7360 
 143   2.0000      -0.501334       -13.6420 
 144   2.0000      -0.499645       -13.5960 
 145   2.0000      -0.496467       -13.5095 
 146   2.0000      -0.493260       -13.4223 
 147   2.0000      -0.492834       -13.4107 
 148   2.0000      -0.490444       -13.3457 
 149   2.0000      -0.486246       -13.2314 
 150   2.0000      -0.482885       -13.1400 
 151   2.0000      -0.480905       -13.0861 
 152   2.0000      -0.478770       -13.0280 
 153   2.0000      -0.477468       -12.9926 
 154   2.0000      -0.474220       -12.9042 
 155   2.0000      -0.472003       -12.8439 
 156   2.0000      -0.469980       -12.7888 
 157   2.0000      -0.466485       -12.6937 
 158   2.0000      -0.462891       -12.5959 
 159   2.0000      -0.459431       -12.5018 
 160   2.0000      -0.456967       -12.4347 
 161   2.0000      -0.455442       -12.3932 
 162   2.0000      -0.452081       -12.3017 
 163   2.0000      -0.450593       -12.2613 
 164   2.0000      -0.446334       -12.1454 
 165   2.0000      -0.443378       -12.0649 
 166   2.0000      -0.439583       -11.9617 
 167   2.0000      -0.439202       -11.9513 
 168   2.0000      -0.437775       -11.9125 
 169   2.0000      -0.432794       -11.7769 
 170   2.0000      -0.430562       -11.7162 
 171   2.0000      -0.427699       -11.6383 
 172   2.0000      -0.423752       -11.5309 
 173   2.0000      -0.422451       -11.4955 
 174   2.0000      -0.421496       -11.4695 
 175   2.0000      -0.417808       -11.3691 
 176   2.0000      -0.412827       -11.2336 
 177   2.0000      -0.408642       -11.1197 
 178   2.0000      -0.405497       -11.0341 
 179   2.0000      -0.396139       -10.7795 
 180   0.0000       0.084933         2.3112 
 181   0.0000       0.106161         2.8888 
 182   0.0000       0.116319         3.1652 
 183   0.0000       0.119411         3.2493 
 184   0.0000       0.127341         3.4651 
 185   0.0000       0.134160         3.6507 
 186   0.0000       0.140832         3.8322 
 187   0.0000       0.142126         3.8674 
 188   0.0000       0.144951         3.9443 
 189   0.0000       0.147977         4.0266 
 190   0.0000       0.149176         4.0593 
 191   0.0000       0.154494         4.2040 
 192   0.0000       0.159944         4.3523 
 193   0.0000       0.161905         4.4057 
 194   0.0000       0.167453         4.5566 
 195   0.0000       0.169748         4.6191 
 196   0.0000       0.175013         4.7623 
 197   0.0000       0.176830         4.8118 
 198   0.0000       0.178082         4.8459 
 199   0.0000       0.179418         4.8822 
 200   0.0000       0.180127         4.9015 
 201   0.0000       0.185314         5.0426 
 202   0.0000       0.186113         5.0644 
 203   0.0000       0.187859         5.1119 
 204   0.0000       0.194410         5.2902 
 205   0.0000       0.198707         5.4071 
 206   0.0000       0.200406         5.4533 
 207   0.0000       0.201799         5.4912 
 208   0.0000       0.203104         5.5268 
 209   0.0000       0.206201         5.6110 
 210   0.0000       0.207562         5.6480 
 211   0.0000       0.210170         5.7190 
 212   0.0000       0.213287         5.8038 
 213   0.0000       0.214551         5.8382 
 214   0.0000       0.217449         5.9171 
 215   0.0000       0.219774         5.9804 
 216   0.0000       0.222275         6.0484 
 217   0.0000       0.222965         6.0672 
 218   0.0000       0.228553         6.2193 
 219   0.0000       0.230057         6.2602 
 220   0.0000       0.232565         6.3284 
 221   0.0000       0.236449         6.4341 
 222   0.0000       0.237416         6.4604 
 223   0.0000       0.240022         6.5313 
 224   0.0000       0.241612         6.5746 
 225   0.0000       0.244517         6.6536 
 226   0.0000       0.247252         6.7281 
 227   0.0000       0.251985         6.8569 
 228   0.0000       0.252607         6.8738 
 229   0.0000       0.256803         6.9880 
 230   0.0000       0.257403         7.0043 
 231   0.0000       0.259731         7.0676 
 232   0.0000       0.260481         7.0881 
 233   0.0000       0.265242         7.2176 
 234   0.0000       0.268906         7.3173 
 235   0.0000       0.270449         7.3593 
 236   0.0000       0.271978         7.4009 
 237   0.0000       0.274873         7.4797 
 238   0.0000       0.275706         7.5023 
 239   0.0000       0.278343         7.5741 
 240   0.0000       0.283413         7.7121 
 241   0.0000       0.284944         7.7537 
 242   0.0000       0.288957         7.8629 
 243   0.0000       0.290601         7.9077 
 244   0.0000       0.293696         7.9919 
 245   0.0000       0.297847         8.1048 
 246   0.0000       0.302038         8.2189 
 247   0.0000       0.302251         8.2247 
 248   0.0000       0.305821         8.3218 
 249   0.0000       0.307335         8.3630 
 250   0.0000       0.311939         8.4883 
 251   0.0000       0.313133         8.5208 
 252   0.0000       0.319155         8.6846 
 253   0.0000       0.319931         8.7058 
 254   0.0000       0.321888         8.7590 
 255   0.0000       0.323017         8.7897 
 256   0.0000       0.326307         8.8793 
 257   0.0000       0.329031         8.9534 
 258   0.0000       0.333579         9.0771 
 259   0.0000       0.335077         9.1179 
 260   0.0000       0.336883         9.1671 
 261   0.0000       0.339661         9.2426 
 262   0.0000       0.342900         9.3308 
 263   0.0000       0.344045         9.3619 
 264   0.0000       0.347432         9.4541 
 265   0.0000       0.351101         9.5539 
 266   0.0000       0.356335         9.6964 
 267   0.0000       0.356694         9.7061 
 268   0.0000       0.358099         9.7444 
 269   0.0000       0.364469         9.9177 
 270   0.0000       0.366935         9.9848 
 271   0.0000       0.372559        10.1378 
 272   0.0000       0.374007        10.1772 
 273   0.0000       0.378299        10.2940 
 274   0.0000       0.382986        10.4216 
 275   0.0000       0.384542        10.4639 
 276   0.0000       0.385862        10.4999 
 277   0.0000       0.389011        10.5855 
 278   0.0000       0.391740        10.6598 
 279   0.0000       0.397689        10.8217 
 280   0.0000       0.399434        10.8692 
 281   0.0000       0.401949        10.9376 
 282   0.0000       0.403174        10.9709 
 283   0.0000       0.404817        11.0156 
 284   0.0000       0.408153        11.1064 
 285   0.0000       0.409714        11.1489 
 286   0.0000       0.412827        11.2336 
 287   0.0000       0.416323        11.3287 
 288   0.0000       0.418945        11.4001 
 289   0.0000       0.420263        11.4359 
 290   0.0000       0.423899        11.5349 
 291   0.0000       0.428789        11.6679 
 292   0.0000       0.429610        11.6903 
 293   0.0000       0.433055        11.7840 
 294   0.0000       0.435625        11.8540 
 295   0.0000       0.438858        11.9419 
 296   0.0000       0.443609        12.0712 
 297   0.0000       0.446058        12.1379 
 298   0.0000       0.450570        12.2606 
 299   0.0000       0.454159        12.3583 
 300   0.0000       0.461320        12.5532 
 301   0.0000       0.468432        12.7467 
 302   0.0000       0.473787        12.8924 
 303   0.0000       0.476977        12.9792 
 304   0.0000       0.482121        13.1192 
 305   0.0000       0.486903        13.2493 
 306   0.0000       0.488352        13.2887 
 307   0.0000       0.492105        13.3909 
 308   0.0000       0.497348        13.5335 
 309   0.0000       0.501545        13.6477 
 310   0.0000       0.505246        13.7485 
 311   0.0000       0.509962        13.8768 
 312   0.0000       0.515732        14.0338 
 313   0.0000       0.520694        14.1688 
 314   0.0000       0.533050        14.5050 
 315   0.0000       0.534903        14.5554 
 316   0.0000       0.537926        14.6377 
 317   0.0000       0.540799        14.7159 
 318   0.0000       0.543467        14.7885 
 319   0.0000       0.545625        14.8472 
 320   0.0000       0.551401        15.0044 
 321   0.0000       0.552688        15.0394 
 322   0.0000       0.555819        15.1246 
 323   0.0000       0.558926        15.2092 
 324   0.0000       0.562496        15.3063 
 325   0.0000       0.564603        15.3636 
 326   0.0000       0.567648        15.4465 
 327   0.0000       0.569043        15.4845 
 328   0.0000       0.571990        15.5646 
 329   0.0000       0.574959        15.6454 
 330   0.0000       0.576262        15.6809 
 331   0.0000       0.577848        15.7240 
 332   0.0000       0.579729        15.7752 
 333   0.0000       0.583436        15.8761 
 334   0.0000       0.585980        15.9453 
 335   0.0000       0.586320        15.9546 
 336   0.0000       0.588569        16.0158 
 337   0.0000       0.589586        16.0435 
 338   0.0000       0.591649        16.0996 
 339   0.0000       0.593063        16.1381 
 340   0.0000       0.595167        16.1953 
 341   0.0000       0.596077        16.2201 
 342   0.0000       0.599838        16.3224 
 343   0.0000       0.601188        16.3592 
 344   0.0000       0.602032        16.3821 
 345   0.0000       0.605405        16.4739 
 346   0.0000       0.607398        16.5281 
 347   0.0000       0.611630        16.6433 
 348   0.0000       0.612156        16.6576 
 349   0.0000       0.614919        16.7328 
 350   0.0000       0.615977        16.7616 
 351   0.0000       0.617788        16.8109 
 352   0.0000       0.619289        16.8517 
 353   0.0000       0.620429        16.8827 
 354   0.0000       0.622233        16.9318 
 355   0.0000       0.623261        16.9598 
 356   0.0000       0.625554        17.0222 
[...]
  VA   - Mayer's total valence
  BVA  - Mayer's bonded valence
  FA   - Mayer's free valence

  ATOM       NA         ZA         QA         VA         BVA        FA
  0 O      8.4508     8.0000    -0.4508     1.9501     1.9501    -0.0000
  1 H      0.6930     1.0000     0.3070     0.9710     0.9710    -0.0000
  2 C      6.0288     6.0000    -0.0288     3.9425     3.9425    -0.0000
  3 H      0.9638     1.0000     0.0362     0.9550     0.9550    -0.0000
  4 H      0.9598     1.0000     0.0402     0.9539     0.9539    -0.0000
  5 H      0.9176     1.0000     0.0824     0.9664     0.9664     0.0000
  6 O      8.4594     8.0000    -0.4594     1.9376     1.9376     0.0000
  7 H      0.7394     1.0000     0.2606     0.9965     0.9965     0.0000
  8 C      6.0929     6.0000    -0.0929     3.8556     3.8556     0.0000
  9 H      0.8995     1.0000     0.1005     0.9651     0.9651     0.0000
 10 H      0.9388     1.0000     0.0612     0.9604     0.9604     0.0000
 11 H      0.8660     1.0000     0.1340     0.9903     0.9903    -0.0000
 12 O      8.4993     8.0000    -0.4993     1.9095     1.9095     0.0000
 13 H      0.6860     1.0000     0.3140     0.9487     0.9487     0.0000
 14 C      6.0950     6.0000    -0.0950     3.9005     3.9005    -0.0000
 15 H      0.9039     1.0000     0.0961     0.9681     0.9681     0.0000
 16 H      0.9408     1.0000     0.0592     0.9675     0.9675    -0.0000
 17 H      0.8540     1.0000     0.1460     0.9658     0.9658    -0.0000
 18 O      8.4592     8.0000    -0.4592     1.9354     1.9354    -0.0000
 19 H      0.7500     1.0000     0.2500     0.9913     0.9913    -0.0000
 20 C      6.1062     6.0000    -0.1062     3.8350     3.8350    -0.0000
 21 H      0.8660     1.0000     0.1340     0.9712     0.9712     0.0000
 22 H      0.8663     1.0000     0.1337     0.9733     0.9733     0.0000
 23 H      0.9378     1.0000     0.0622     0.9695     0.9695     0.0000
 24 O      8.5097     8.0000    -0.5097     1.8998     1.8998     0.0000
 25 H      0.7128     1.0000     0.2872     1.0261     1.0261     0.0000
 26 C      6.0790     6.0000    -0.0790     3.8890     3.8890     0.0000
 27 H      0.9080     1.0000     0.0920     0.9667     0.9667    -0.0000
 28 H      0.9491     1.0000     0.0509     0.9710     0.9710    -0.0000
 29 H      0.8972     1.0000     0.1028     0.9997     0.9997     0.0000
 30 O      8.4335     8.0000    -0.4335     1.9543     1.9543    -0.0000
 31 H      0.7177     1.0000     0.2823     0.9688     0.9688    -0.0000
 32 C      6.0990     6.0000    -0.0990     3.9180     3.9180    -0.0000
 33 H      0.9093     1.0000     0.0907     0.9638     0.9638    -0.0000
 34 H      0.8921     1.0000     0.1079     0.9711     0.9711     0.0000
 35 H      0.9304     1.0000     0.0696     0.9645     0.9645     0.0000
 36 O      8.4029     8.0000    -0.4029     1.9680     1.9680    -0.0000
 37 H      0.7746     1.0000     0.2254     1.0128     1.0128    -0.0000
 38 C      6.0471     6.0000    -0.0471     3.9138     3.9138    -0.0000
 39 H      0.9530     1.0000     0.0470     0.9877     0.9877     0.0000
 40 H      0.8972     1.0000     0.1028     0.9640     0.9640    -0.0000
 41 H      0.9384     1.0000     0.0616     0.9733     0.9733    -0.0000
 42 O      8.4332     8.0000    -0.4332     1.9519     1.9519    -0.0000
 43 H      0.7258     1.0000     0.2742     0.9942     0.9942     0.0000
 44 C      6.0271     6.0000    -0.0271     3.9472     3.9472     0.0000
 45 H      0.9318     1.0000     0.0682     0.9614     0.9614     0.0000
 46 H      0.9309     1.0000     0.0691     0.9637     0.9637     0.0000
 47 H      0.9558     1.0000     0.0442     0.9737     0.9737     0.0000
 48 O      8.3968     8.0000    -0.3968     1.9540     1.9540     0.0000
 49 H      0.7611     1.0000     0.2389     1.0029     1.0029    -0.0000
 50 C      6.0518     6.0000    -0.0518     3.9048     3.9048    -0.0000
 51 H      0.9077     1.0000     0.0923     0.9767     0.9767     0.0000
 52 H      0.9665     1.0000     0.0335     0.9616     0.9616     0.0000
 53 H      0.9188     1.0000     0.0812     0.9615     0.9615    -0.0000
 54 O      8.4252     8.0000    -0.4252     1.9661     1.9661    -0.0000
 55 H      0.7588     1.0000     0.2412     1.0036     1.0036    -0.0000
 56 C      6.0250     6.0000    -0.0250     3.9178     3.9178     0.0000
 57 H      0.9107     1.0000     0.0893     0.9767     0.9767     0.0000
 58 H      0.9322     1.0000     0.0678     0.9706     0.9706     0.0000
 59 H      0.9522     1.0000     0.0478     0.9731     0.9731    -0.0000
 60 O      8.4189     8.0000    -0.4189     1.9807     1.9807    -0.0000
 61 H      0.7416     1.0000     0.2584     0.9951     0.9951    -0.0000
 62 C      6.0377     6.0000    -0.0377     3.9246     3.9246    -0.0000
 63 H      0.9194     1.0000     0.0806     0.9717     0.9717    -0.0000
 64 H      0.9243     1.0000     0.0757     0.9831     0.9831    -0.0000
 65 H      0.9588     1.0000     0.0412     0.9376     0.9376    -0.0000
 66 O      8.4455     8.0000    -0.4455     1.9561     1.9561    -0.0000
 67 H      0.7568     1.0000     0.2432     1.0270     1.0270     0.0000
 68 C      6.0003     6.0000    -0.0003     3.9147     3.9147    -0.0000
 69 H      0.9256     1.0000     0.0744     0.9772     0.9772     0.0000
 70 H      0.9539     1.0000     0.0461     0.9286     0.9286    -0.0000
 71 H      0.9465     1.0000     0.0535     0.9651     0.9651    -0.0000
 72 O      8.3844     8.0000    -0.3844     1.9872     1.9872     0.0000
 73 H      0.7691     1.0000     0.2309     1.0046     1.0046     0.0000
 74 C      6.0326     6.0000    -0.0326     3.9364     3.9364    -0.0000
 75 H      0.9267     1.0000     0.0733     0.9673     0.9673     0.0000
 76 H      0.9367     1.0000     0.0633     0.9642     0.9642     0.0000
 77 H      0.9438     1.0000     0.0562     0.9668     0.9668    -0.0000
 78 O      8.3620     8.0000    -0.3620     1.9854     1.9854     0.0000
 79 H      0.7790     1.0000     0.2210     1.0079     1.0079    -0.0000
 80 C      6.0490     6.0000    -0.0490     3.9385     3.9385     0.0000
 81 H      0.9119     1.0000     0.0881     0.9678     0.9678    -0.0000
 82 H      0.9579     1.0000     0.0421     0.9790     0.9790    -0.0000
 83 H      0.9303     1.0000     0.0697     0.9308     0.9308     0.0000
 84 O      8.3971     8.0000    -0.3971     1.9861     1.9861     0.0000
 85 H      0.7814     1.0000     0.2186     1.0175     1.0175    -0.0000
 86 C      6.0318     6.0000    -0.0318     3.9253     3.9253     0.0000
 87 H      0.9274     1.0000     0.0726     0.9668     0.9668     0.0000
 88 H      0.9367     1.0000     0.0633     0.9742     0.9742     0.0000
 89 H      0.9110     1.0000     0.0890     0.9447     0.9447     0.0000
 90 O      8.4143     8.0000    -0.4143     1.9877     1.9877    -0.0000
 91 H      0.7687     1.0000     0.2313     1.0083     1.0083    -0.0000
 92 C      6.0552     6.0000    -0.0552     3.9168     3.9168     0.0000
 93 H      0.9287     1.0000     0.0713     0.9606     0.9606    -0.0000
 94 H      0.9044     1.0000     0.0956     0.9547     0.9547     0.0000
 95 H      0.9139     1.0000     0.0861     0.9788     0.9788     0.0000
 96 O      8.4661     8.0000    -0.4661     1.9453     1.9453    -0.0000
 97 H      0.6876     1.0000     0.3124     0.9558     0.9558     0.0000
 98 C      6.0883     6.0000    -0.0883     3.9156     3.9156    -0.0000
 99 H      0.8867     1.0000     0.1133     0.9726     0.9726     0.0000
100 H      0.9092     1.0000     0.0908     0.9618     0.9618    -0.0000
101 H      0.9314     1.0000     0.0686     0.9734     0.9734    -0.0000
102 O      8.3796     8.0000    -0.3796     1.9885     1.9885     0.0000
103 H      0.7787     1.0000     0.2213     1.0075     1.0075     0.0000
104 C      6.0419     6.0000    -0.0419     3.9317     3.9317    -0.0000
105 H      0.9248     1.0000     0.0752     0.9542     0.9542    -0.0000
106 H      0.9087     1.0000     0.0913     0.9557     0.9557    -0.0000
107 H      0.9515     1.0000     0.0485     0.9793     0.9793    -0.0000
108 O      8.4446     8.0000    -0.4446     1.9368     1.9368    -0.0000
109 H      0.7848     1.0000     0.2152     1.0256     1.0256     0.0000
110 C      6.0824     6.0000    -0.0824     3.8317     3.8317     0.0000
111 H      0.9054     1.0000     0.0946     0.9716     0.9716     0.0000
112 H      0.8947     1.0000     0.1053     0.9853     0.9853    -0.0000
113 H      0.9141     1.0000     0.0859     0.9664     0.9664     0.0000
114 O      8.4135     8.0000    -0.4135     1.9653     1.9653    -0.0000
115 H      0.7847     1.0000     0.2153     1.0199     1.0199     0.0000
116 C      6.0298     6.0000    -0.0298     3.9121     3.9121    -0.0000
117 H      0.9066     1.0000     0.0934     0.9643     0.9643    -0.0000
118 H      0.9104     1.0000     0.0896     0.9587     0.9587     0.0000
119 H      0.9544     1.0000     0.0456     0.9774     0.9774    -0.0000

  Mayer bond orders larger than 0.100000
B(  0-O ,  1-H ) :   0.9044 B(  0-O ,  2-C ) :   1.0163 B(  2-C ,  3-H ) :   0.9710 
B(  2-C ,  4-H ) :   0.9653 B(  2-C ,  5-H ) :   0.9854 B(  6-O ,  7-H ) :   0.9497 
B(  6-O ,  8-C ) :   0.9289 B(  8-C ,  9-H ) :   0.9680 B(  8-C , 10-H ) :   0.9811 
B(  8-C , 11-H ) :   0.9832 B( 12-O , 13-H ) :   0.9042 B( 12-O , 14-C ) :   0.9497 
B( 14-C , 15-H ) :   0.9762 B( 14-C , 16-H ) :   0.9700 B( 14-C , 17-H ) :   0.9846 
B( 18-O , 19-H ) :   0.9615 B( 18-O , 20-C ) :   0.9225 B( 20-C , 21-H ) :   0.9741 
B( 20-C , 22-H ) :   0.9523 B( 20-C , 23-H ) :   0.9868 B( 24-O , 25-H ) :   0.9129 
B( 24-O , 26-C ) :   0.9550 B( 26-C , 27-H ) :   0.9830 B( 26-C , 28-H ) :   0.9670 
B( 26-C , 29-H ) :   0.9755 B( 30-O , 31-H ) :   0.9252 B( 30-O , 32-C ) :   0.9690 
B( 32-C , 33-H ) :   0.9796 B( 32-C , 34-H ) :   0.9821 B( 32-C , 35-H ) :   0.9841 
B( 36-O , 37-H ) :   0.9938 B( 36-O , 38-C ) :   0.9756 B( 38-C , 39-H ) :   0.9727 
B( 38-C , 40-H ) :   0.9584 B( 38-C , 41-H ) :   0.9891 B( 42-O , 43-H ) :   0.9396 
B( 42-O , 44-C ) :   0.9966 B( 44-C , 45-H ) :   0.9701 B( 44-C , 46-H ) :   0.9742 
B( 44-C , 47-H ) :   0.9942 B( 48-O , 49-H ) :   0.9854 B( 48-O , 50-C ) :   0.9645 
B( 50-C , 51-H ) :   0.9719 B( 50-C , 52-H ) :   0.9986 B( 50-C , 53-H ) :   0.9574 
B( 54-O , 55-H ) :   0.9744 B( 54-O , 56-C ) :   0.9748 B( 56-C , 57-H ) :   0.9789 
B( 56-C , 58-H ) :   0.9805 B( 56-C , 59-H ) :   0.9670 B( 60-O , 61-H ) :   0.9618 
B( 60-O , 62-C ) :   0.9954 B( 62-C , 63-H ) :   0.9828 B( 62-C , 64-H ) :   0.9910 
B( 62-C , 65-H ) :   0.9559 B( 66-O , 67-H ) :   0.9664 B( 66-O , 68-C ) :   0.9892 
B( 68-C , 69-H ) :   0.9872 B( 68-C , 70-H ) :   0.9546 B( 68-C , 71-H ) :   0.9795 
B( 72-O , 73-H ) :   0.9742 B( 72-O , 74-C ) :   0.9899 B( 74-C , 75-H ) :   0.9774 
B( 74-C , 76-H ) :   0.9818 B( 74-C , 77-H ) :   0.9788 B( 78-O , 79-H ) :   0.9887 
B( 78-O , 80-C ) :   0.9920 B( 80-C , 81-H ) :   0.9759 B( 80-C , 82-H ) :   0.9953 
B( 80-C , 83-H ) :   0.9626 B( 84-O , 85-H ) :   0.9978 B( 84-O , 86-C ) :   0.9754 
B( 86-C , 87-H ) :   0.9744 B( 86-C , 88-H ) :   0.9941 B( 86-C , 89-H ) :   0.9648 
B( 90-O , 91-H ) :   0.9894 B( 90-O , 92-C ) :   0.9692 B( 92-C , 93-H ) :   0.9699 
B( 92-C , 94-H ) :   0.9743 B( 92-C , 95-H ) :   0.9900 B( 96-O , 97-H ) :   0.8881 
B( 96-O , 98-C ) :   0.9669 B( 98-C , 99-H ) :   0.9783 B( 98-C ,100-H ) :   0.9753 
B( 98-C ,101-H ) :   0.9817 B(102-O ,103-H ) :   0.9899 B(102-O ,104-C ) :   0.9860 
B(104-C ,105-H ) :   0.9642 B(104-C ,106-H ) :   0.9677 B(104-C ,107-H ) :   0.9986 
B(108-O ,109-H ) :   1.0030 B(108-O ,110-C ) :   0.9306 B(110-C ,111-H ) :   0.9758 
B(110-C ,112-H ) :   0.9713 B(110-C ,113-H ) :   0.9720 B(114-O ,115-H ) :   1.0011 
B(114-O ,116-C ) :   0.9665 B(116-C ,117-H ) :   0.9699 B(116-C ,118-H ) :   0.9649 
B(116-C ,119-H ) :   0.9920 

-------
TIMINGS
-------

Total SCF time: 0 days 0 hours 23 min 24 sec 

Total time                  ....    1404.443 sec
Sum of individual times     ....    1395.133 sec  ( 99.3%)

Fock matrix formation       ....    1369.126 sec  ( 97.5%)
Diagonalization             ....       5.667 sec  (  0.4%)
Density matrix formation    ....       0.906 sec  (  0.1%)
Population analysis         ....       2.087 sec  (  0.1%)
Initial guess               ....       2.855 sec  (  0.2%)
Orbital Transformation      ....       0.000 sec  (  0.0%)
Orbital Orthonormalization  ....       0.000 sec  (  0.0%)
DIIS solution               ....       6.966 sec  (  0.5%)
SOSCF solution              ....       6.699 sec  (  0.5%)


           ************************************************************
           *        Program running with 24 parallel MPI-processes    *
           *              working on a common directory               *
           ************************************************************

------------------------------------------------------------------------------
                                ORCA  MP2 
------------------------------------------------------------------------------

Freezing NCore=80 chemical core electrons

-------------
RI-MP2 ENERGY
-------------
Dimension of the basis                    ... 2320
Memory devoted to MP2                     ... 8000 MB   
Data format for buffers                   ... DOUBLE
Compression type for matrix containers    ... UNCOMPRESSED
Overall scaling of the MP2 energy         ...   1.000e+00
Calculating two index integrals           ... done (    0.217 sec)
Cholesky decomposition of V**-1           ... done (    3.161 sec)

-----------------
RI-TRANSFORMATION (AUX index driven)
-----------------

Dimension of the orbital-basis         ... 2320
Dimension of the aux-basis             ... 5640
Transformation of internal/external MOs...   40- 179 to  180-2319
Number Format for Storage              ... Double (8 Byte)
Integral mode                          ... Direct

First Phase: integral generation and transformation of MO indices
  Aux angular momentum 0               ... done (    3.234 sec)
  Aux angular momentum 1               ... done (    6.248 sec)
  Aux angular momentum 2               ... done (    7.573 sec)
  Aux angular momentum 3               ... done (    6.129 sec)
  Aux angular momentum 4               ... done (    1.644 sec)
Closing buffer VIA (12.59 GB; CompressionRatio= 1.00)
  Phase 1 completed in    25.311 sec
Second Phase: sorting and transformation of aux index

IA-Transformation
Memory available                       ... 7330 MB 
Max. # MO pairs treated in a batch     ... 6    
# of internal orbitals                 ... 140
# batches for internal orbitals        ... 1
Closing buffer IAV ( 0.54 GB; CompressionRatio= 1.00)
(ia|v) transformation done in    20.929 sec

  Phase 2 completed in    38.936 sec
RI-Integral transformation completed in    64.258 sec
Opening buffers                              ... done

Starting loop over batches of integrals:

Operator 0  - window                       ... ( 40-179)x(180-2319)
Operator 0  - Memory available             ...  8000 MB
Operator 0  - Memory needed per MO         ...  92.1 MB
Operator 0  - Number of orbitals per batch ... 6
Operator 0  - Number of batches            ... 1

OPERATOR  0   PASS   0:  MOs    40 ...   45 +   46 ...   51 +   52 ...   57 +   58 ...   63
                            +   64 ...   69 +   70 ...   75 +   76 ...   81 +   82 ...   87
                            +   88 ...   93 +   94 ...   99 +  100 ...  105 +  106 ...  111
                            +  112 ...  117 +  118 ...  123 +  124 ...  129 +  130 ...  135
                            +  136 ...  141 +  142 ...  147 +  148 ...  153 +  154 ...  159
                            +  160 ...  165 +  166 ...  171 +  172 ...  177 +  178 ...  179
  Reading integrals       ... ok
  Internal MO  42
  Internal MO  45
Time spent in pair loops =    19.772 sec
Deleting buffer (Ka|jb)[aa] ...done

-----------------------------------------------
 RI-MP2 CORRELATION ENERGY:     -8.671743792 Eh
-----------------------------------------------


-------
TIMINGS
-------

Total time                :  768.865 sec
Integral trafo            :   64.276 sec (  8.4%)
I/O of integrals          :    0.625 sec (  0.1%)
K(i,j) Operators          :   17.361 sec (  2.3%)
T(i,j) pair energies      :    1.162 sec (  0.2%)
V-calculation             :    0.217 sec (  0.0%)
V**(-1/2)                 :    3.161 sec (  0.4%)
Gamma(ia|P)               :    0.000 sec (  0.0%)
Gamma-Trafo               :    0.000 sec (  0.0%)
D(virtual)                :    0.000 sec (  0.0%)
D(internal)               :    0.000 sec (  0.0%)
W(virtual)                :    0.000 sec (  0.0%)
W(internal)               :    0.000 sec (  0.0%)
L(virtual)                :    0.000 sec (  0.0%)
L(internal)               :    0.000 sec (  0.0%)
G(D)                      :    0.000 sec (  0.0%)
G(Z)                      :    0.000 sec (  0.0%)
Z-Vector Solution         :    0.000 sec (  0.0%)
3-Index Derivative        :    0.000 sec (  0.0%)
2-Index Derivative        :    0.000 sec (  0.0%)
Separable Gradient        :    0.000 sec (  0.0%)


---------------------------------------
MP2 TOTAL ENERGY:    -2310.324392749 Eh
---------------------------------------

-------------------------   --------------------
FINAL SINGLE POINT ENERGY     -2310.324392748886
-------------------------   --------------------


                            ***************************************
                            *     ORCA property calculations      *
                            ***************************************


  WARNING: The energy has been calculated at the MP2 level but the densities
           used in the property calculations are still SCF densities
           MP2 response densities have not been calculated 
           use %mp2 Density relaxed end
           or  %mp2 Density unrelaxed end

                                    ---------------------
                                    Active property flags
                                    ---------------------
   (+) Dipole Moment


------------------------------------------------------------------------------
                       ORCA ELECTRIC PROPERTIES CALCULATION
------------------------------------------------------------------------------

Dipole Moment Calculation                       ... on
Quadrupole Moment Calculation                   ... off
Polarizability Calculation                      ... off
GBWName                                         ... input.gbw
Electron density file                           ... input.scfp
The origin for moment calculation is the CENTER OF MASS  = ( 0.733337,  0.013897 -0.050246)

-------------
DIPOLE MOMENT
-------------
                                X             Y             Z
Electronic contribution:     -5.00726       6.66562      -1.99059
Nuclear contribution   :      7.70909      -9.29002       3.86164
                        -----------------------------------------
Total Dipole Moment    :      2.70183      -2.62440       1.87105
                        -----------------------------------------
Magnitude (a.u.)       :      4.20573
Magnitude (Debye)      :     10.69013



--------------------
Rotational spectrum 
--------------------
 
Rotational constants in cm-1:     0.001765     0.001256     0.001137 
Rotational constants in MHz :    52.906528    37.644728    34.073968 

 Dipole components along the rotational axes: 
x,y,z [a.u.] :    -2.509187    -0.170228     3.370936 
x,y,z [Debye]:    -6.377847    -0.432686     8.568237 

 

Timings for individual modules:

Sum of individual times         ...     2183.823 sec (=  36.397 min)
GTO integral calculation        ...        6.713 sec (=   0.112 min)   0.3 %
SCF iterations                  ...     1405.932 sec (=  23.432 min)  64.4 %
MP2 module                      ...      771.177 sec (=  12.853 min)  35.3 %
                             ****ORCA TERMINATED NORMALLY****
TOTAL RUN TIME: 0 days 0 hours 36 minutes 27 seconds 474 msec
