
                                 *****************
                                 * O   R   C   A *
                                 *****************

           --- An Ab Initio, DFT and Semiempirical electronic structure package ---

                  #######################################################
                  #                        -***-                        #
                  #          Department of theory and spectroscopy      #
                  #               Directorship: Frank Neese             #
                  #        Max Planck Institute fuer Kohlenforschung    #
                  #                Kaiser Wilhelm Platz 1               #
                  #                 D-45470 Muelheim/Ruhr               #
                  #                      Germany                        #
                  #                                                     #
                  #                  All rights reserved                #
                  #                        -***-                        #
                  #######################################################


                         Program Version 4.2.0 -  RELEASE  -


 With contributions from (in alphabetic order):
   Daniel Aravena         : Magnetic Suceptibility
   Michael Atanasov       : Ab Initio Ligand Field Theory (pilot matlab implementation)
   Alexander A. Auer      : GIAO ZORA, VPT2
   Ute Becker             : Parallelization
   Giovanni Bistoni       : ED, misc. LED, open-shell LED, HFLED
   Martin Brehm           : Molecular dynamics
   Dmytro Bykov           : SCF Hessian
   Vijay G. Chilkuri      : MRCI spin determinant printing, contributions to CSF-ICE
   Dipayan Datta          : RHF DLPNO-CCSD density
   Achintya Kumar Dutta   : EOM-CC, STEOM-CC
   Dmitry Ganyushin       : Spin-Orbit,Spin-Spin,Magnetic field MRCI
   Miquel Garcia          : C-PCM Hessian, Gaussian charge scheme
   Yang Guo               : DLPNO-NEVPT2, CIM, IAO-localization
   Andreas Hansen         : Spin unrestricted coupled pair/coupled cluster methods
   Benjamin Helmich-Paris : CASSCF linear response (MC-RPA)
   Lee Huntington         : MR-EOM, pCC
   Robert Izsak           : Overlap fitted RIJCOSX, COSX-SCS-MP3, EOM
   Christian Kollmar      : KDIIS, OOCD, Brueckner-CCSD(T), CCSD density
   Simone Kossmann        : Meta GGA functionals, TD-DFT gradient, OOMP2, MP2 Hessian
   Martin Krupicka        : AUTO-CI
   Lucas Lang             : DCDCAS
   Dagmar Lenk            : GEPOL surface, SMD
   Dimitrios Liakos       : Extrapolation schemes; Compound Job, initial MDCI parallelization
   Dimitrios Manganas     : Further ROCIS development; embedding schemes
   Dimitrios Pantazis     : SARC Basis sets
   Taras Petrenko         : DFT Hessian,TD-DFT gradient, ASA, ECA, R-Raman, ABS, FL, XAS/XES, NRVS
   Peter Pinski           : DLPNO-MP2, DLPNO-MP2 Gradient
   Christoph Reimann      : Effective Core Potentials
   Marius Retegan         : Local ZFS, SOC
   Christoph Riplinger    : Optimizer, TS searches, QM/MM, DLPNO-CCSD(T), (RO)-DLPNO pert. Triples
   Tobias Risthaus        : Range-separated hybrids, TD-DFT gradient, RPA, STAB
   Michael Roemelt        : Original ROCIS implementation
   Masaaki Saitow         : Open-shell DLPNO-CCSD energy and density
   Barbara Sandhoefer     : DKH picture change effects
   Avijit Sen             : IP-ROCIS
   Kantharuban Sivalingam : CASSCF convergence, NEVPT2, FIC-MRCI
   Bernardo de Souza      : ESD, SOC TD-DFT
   Georgi Stoychev        : AutoAux, RI-MP2 NMR
   Willem Van den Heuvel  : Paramagnetic NMR
   Boris Wezisla          : Elementary symmetry handling
   Frank Wennmohs         : Technical directorship


 We gratefully acknowledge several colleagues who have allowed us to
 interface, adapt or use parts of their codes:
   Stefan Grimme, W. Hujo, H. Kruse,             : VdW corrections, initial TS optimization,
                  C. Bannwarth                     DFT functionals, gCP, sTDA/sTD-DF
   Ed Valeev, F. Pavosevic, A. Kumar             : LibInt (2-el integral package), F12 methods
   Garnet Chan, S. Sharma, J. Yang, R. Olivares  : DMRG
   Ulf Ekstrom                                   : XCFun DFT Library
   Mihaly Kallay                                 : mrcc  (arbitrary order and MRCC methods)
   Andreas Klamt, Michael Diedenhofen            : otool_cosmo (COSMO solvation model)
   Jiri Pittner, Ondrej Demel                    : Mk-CCSD
   Frank Weinhold                                : gennbo (NPA and NBO analysis)
   Christopher J. Cramer and Donald G. Truhlar   : smd solvation model
   Lars Goerigk                                  : TD-DFT with DH, B97 family of functionals
   V. Asgeirsson, H. Jonsson                     : NEB implementation
   FAccTs GmbH                                   : IRC, NEB, NEB-TS, Multilevel, MM, QM/MM, CI optimization
   S Lehtola, MJT Oliveira, MAL Marques          : LibXC Library


 Your calculation uses the libint2 library for the computation of 2-el integrals
 For citations please refer to: http://libint.valeyev.net

 Your ORCA version has been built with support for libXC version: 4.2.3
 For citations please refer to: https://tddft.org/programs/libxc/

 This ORCA versions uses:
   CBLAS   interface :  Fast vector & matrix operations
   LAPACKE interface :  Fast linear algebra routines
   SCALAPACK package :  Parallel linear algebra routines


----- Orbital basis set information -----
Your calculation utilizes the basis: cc-pVTZ 
       H, B-Ne : Obtained from the ccRepo (grant-hill.group.shef.ac.uk/ccrepo) Feb. 2017
                 T. H. Dunning, Jr., J. Chem. Phys. 90, 1007 (1989)
            He : Obtained from the ccRepo (grant-hill.group.shef.ac.uk/ccrepo) Feb. 2017
                 D. E. Woon, T. H. Dunning, Jr., J. Chem. Phys. 100, 2975 (1994)
  Li-Be, Na-Mg : Obtained from the ccRepo (grant-hill.group.shef.ac.uk/ccrepo) Feb. 2017
                 B. P. Prascher, D. E. Woon, K. A. Peterson, T. H. Dunning, Jr., A. K. Wilson, Theor. Chem. Acc. 128, 69 (2011)
         Al-Ar : Obtained from the ccRepo (grant-hill.group.shef.ac.uk/ccrepo) Feb. 2017
                 D. E. Woon, T. H. Dunning, Jr., J. Chem. Phys. 98, 1358 (1993)
            Ca : Obtained from the Peterson Research Group Website (tyr0.chem.wsu.edu/~kipeters) Feb. 2017
                 J. Koput, K. A. Peterson, J. Phys. Chem. 106, 9595 (2002)
         Sc-Zn : Obtained from the ccRepo (grant-hill.group.shef.ac.uk/ccrepo) Feb. 2017
                 N. B. Balabanov, K. A. Peterson, J. Chem. Phys. 123, 064107 (2005)
                 N. B. Balabanov, K. A. Peterson, J. Chem. Phys. 125, 074110 (2006)
         Ga-Kr : Obtained from the ccRepo (grant-hill.group.shef.ac.uk/ccrepo) Feb. 2017
                 A. K. Wilson, D. E. Woon, K. A. Peterson, T. H. Dunning, Jr., J. Chem. Phys. 110, 7667 (1999)
             Y : Obtained from the ccRepo (grant-hill.group.shef.ac.uk/ccrepo) Feb. 2017
                 K. A. Peterson, D. Figgen, M. Dolg, H. Stoll, J. Chem. Phys. 126, 124101 (2007)
        Ag, Au : Obtained from the Peterson Research Group Website (tyr0.chem.wsu.edu/~kipeters) Feb. 2017
                 K. A. Peterson, C. Puzzarini, Theor. Chem. Acc. 114, 283 (2005)

----- AuxC basis set information -----
Your calculation utilizes the auxiliary basis: cc-pVTZ/C 
  Obtained from the EMSL Basis Set Exchange (bse.pnl.gov) Feb. 2017
  H-He, B-F, Al-Ar, Ga-Kr : F. Weigend, A. Kohn, C. Hattig, J. Chem. Phys. 116, 3175 (2002)
             Li-Be, Na-Mg : C. Haettig, Phys. Chem. Chem. Phys. 7, 59 (2005)
                       Ne : C. Haettig, Phys. Chem. Chem. Phys. 7, 59 (2005)
                            F. Weigend, A. Kohn, C. Hattig, J. Chem. Phys. 116, 3175 (2002)
                    Sc-Zn : J. G. Hill, J. A. Platts, J. Chem. Phys. 128, 044104 (2008)

================================================================================
                                        WARNINGS
                       Please study these warnings very carefully!
================================================================================


WARNING: No MP2 level density has been requested!
         To caclulate MP2 level properties use
         %mp2 Density relaxed end
         or
         %mp2 Density unrelaxed end

INFO   : the flag for use of LIBINT has been found!

================================================================================
                                       INPUT FILE
================================================================================
NAME = input.inp
|  1> ! RI-MP2 cc-pVTZ cc-pVTZ/C TightSCF FrozenCore
|  2> 
|  3> %pal nprocs 24 end
|  4> %maxcore 8000
|  5> %scf ConvForced true end
|  6> 
|  7> *xyz  0  1
|  8> O     0.00000     0.00000     0.00000
|  9> H    -0.70026    -0.62915     0.08934
| 10> C     0.87795    -0.23893     1.03079
| 11> H     0.96587     0.71823     1.57400
| 12> H     1.83718    -0.60676     0.66456
| 13> H     0.51217    -0.96426     1.73689
| 14> O    -0.06035     0.56475    -2.81895
| 15> H     0.70797     0.36886    -2.25150
| 16> C     0.06442     0.06828    -4.17230
| 17> H    -0.22157     0.82343    -4.88087
| 18> H    -0.45937    -0.83062    -4.26167
| 19> H     1.08328    -0.05448    -4.38688
| 20> O     2.46367     0.91143    -1.54141
| 21> H     2.59184     1.52422    -0.81681
| 22> C     3.74316     0.71087    -2.12348
| 23> H     3.91345    -0.32039    -2.44765
| 24> H     4.52249     0.93691    -1.41818
| 25> H     3.81779     1.34702    -2.96013
| 26> O    -2.40288    -1.52942     1.20564
| 27> H    -3.30698    -1.72491     1.47573
| 28> C    -1.65305    -2.74377     0.92907
| 29> H    -1.25423    -2.74311    -0.12878
| 30> H    -2.23744    -3.58761     1.18255
| 31> H    -0.82780    -2.71281     1.61620
| 32> O     0.42434     3.18557    -1.22194
| 33> H     0.46382     2.20641    -1.29442
| 34> C    -0.35287     3.63661    -2.29379
| 35> H    -0.16445     4.73324    -2.45022
| 36> H    -1.37221     3.48393    -2.09897
| 37> H    -0.06745     3.07005    -3.21746
| 38> O     1.61028    -3.65187    -0.05200
| 39> H     1.97956    -3.22991     0.72906
| 40> C     2.12687    -5.01135     0.11770
| 41> H     1.85357    -5.60852    -0.72304
| 42> H     1.71363    -5.49896     0.98146
| 43> H     3.18811    -4.94999     0.20772
| 44> O     3.27456     2.30660     0.51753
| 45> H     2.64408     2.79221     1.03863
| 46> C     4.59747     2.71169     0.84951
| 47> H     5.24712     1.84856     0.73763
| 48> H     4.55988     2.92584     1.96368
| 49> H     4.92955     3.53454     0.24336
| 50> O     3.35886    -2.83115     2.12140
| 51> H     4.09135    -2.85273     1.51410
| 52> C     3.64112    -3.74747     3.18137
| 53> H     2.97751    -3.53500     4.06722
| 54> H     4.68658    -3.63510     3.40105
| 55> H     3.43340    -4.74023     2.73836
| 56> O     1.77366     3.75697     2.80020
| 57> H     0.89853     4.09828     2.99334
| 58> C     2.18038     3.06208     3.96642
| 59> H     3.23277     2.89807     3.88316
| 60> H     1.69124     2.09080     4.01213
| 61> H     1.95663     3.60461     4.86012
| 62> O    -1.06780     3.68315     3.32112
| 63> H    -1.59032     3.54886     4.12394
| 64> C    -1.13055     2.51711     2.53616
| 65> H    -0.38158     2.55847     1.77654
| 66> H    -2.14000     2.43249     2.14582
| 67> H    -0.99357     1.63689     3.13392
| 68> O    -5.34865    -0.18487    -1.04645
| 69> H    -5.94109    -0.48059    -1.75193
| 70> C    -4.01671    -0.11340    -1.57191
| 71> H    -3.58784     0.91097    -1.54296
| 72> H    -4.00308    -0.54562    -2.60872
| 73> H    -3.38310    -0.69612    -0.97093
| 74> O    -4.88485     2.45165     0.38867
| 75> H    -5.25571     1.58858     0.05233
| 76> C    -4.83859     2.40755     1.83096
| 77> H    -4.29217     3.26154     2.18968
| 78> H    -4.38912     1.55499     2.16839
| 79> H    -5.80945     2.54295     2.27999
| 80> O     4.55985    -3.57420    -1.04349
| 81> H     3.98028    -3.09771    -1.68522
| 82> C     5.56734    -4.21736    -1.78216
| 83> H     5.57481    -5.26052    -1.50495
| 84> H     6.50686    -3.80251    -1.63918
| 85> H     5.33424    -4.16160    -2.85981
| 86> O    -5.53251    -1.35891     2.24354
| 87> H    -5.06775    -0.88621     2.96671
| 88> C    -6.81166    -0.88483     2.08686
| 89> H    -7.25582    -1.29515     1.18648
| 90> H    -6.76939     0.18756     1.89345
| 91> H    -7.50596    -1.06673     2.97712
| 92> O     0.49110    -3.86406    -4.82053
| 93> H     0.71858    -4.77263    -5.13018
| 94> C     1.27571    -3.67312    -3.66262
| 95> H     0.91973    -2.75942    -3.13880
| 96> H     2.33220    -3.48045    -3.87518
| 97> H     1.19258    -4.53421    -3.01336
| 98> O    -3.23254    -4.38856     3.54974
| 99> H    -2.52221    -4.27823     4.16290
|100> C    -4.45456    -3.80205     4.07156
|101> H    -5.23569    -3.85019     3.29487
|102> H    -4.32213    -2.76367     4.40718
|103> H    -4.79870    -4.40263     4.93148
|104> O     4.39395    -1.42184    -4.58371
|105> H     4.96533    -0.66967    -4.71322
|106> C     4.79628    -2.43774    -5.53720
|107> H     4.05672    -3.20395    -5.61193
|108> H     5.75423    -2.91750    -5.30194
|109> H     4.91111    -2.04224    -6.59227
|110> O     1.48364     2.91588    -5.64069
|111> H     1.66526     2.95710    -6.56610
|112> C     2.70374     3.06249    -4.97228
|113> H     2.47881     2.99289    -3.86750
|114> H     3.14857     3.96453    -5.27959
|115> H     3.32506     2.23489    -5.19224
|116> O    -0.10263    -1.82536     6.26336
|117> H    -0.79842    -1.24448     6.53210
|118> C     1.05975    -1.06818     6.12096
|119> H     1.90808    -1.70204     6.13543
|120> H     1.10695    -0.38772     6.92973
|121> H     0.97811    -0.53493     5.19361
|122> O     2.65820     6.27521     0.22395
|123> H     2.60320     5.67178     0.97515
|124> C     2.95969     5.57264    -1.05781
|125> H     3.45886     6.23779    -1.72474
|126> H     2.04146     5.23085    -1.57475
|127> H     3.55468     4.68447    -0.84680
|128> *
|129> 
|130>                          ****END OF INPUT****
================================================================================

                       ****************************
                       * Single Point Calculation *
                       ****************************

---------------------------------
CARTESIAN COORDINATES (ANGSTROEM)
---------------------------------
  O      0.000000    0.000000    0.000000
  H     -0.700260   -0.629150    0.089340
  C      0.877950   -0.238930    1.030790
  H      0.965870    0.718230    1.574000
  H      1.837180   -0.606760    0.664560
  H      0.512170   -0.964260    1.736890
  O     -0.060350    0.564750   -2.818950
  H      0.707970    0.368860   -2.251500
  C      0.064420    0.068280   -4.172300
  H     -0.221570    0.823430   -4.880870
  H     -0.459370   -0.830620   -4.261670
  H      1.083280   -0.054480   -4.386880
  O      2.463670    0.911430   -1.541410
  H      2.591840    1.524220   -0.816810
  C      3.743160    0.710870   -2.123480
  H      3.913450   -0.320390   -2.447650
  H      4.522490    0.936910   -1.418180
  H      3.817790    1.347020   -2.960130
  O     -2.402880   -1.529420    1.205640
  H     -3.306980   -1.724910    1.475730
  C     -1.653050   -2.743770    0.929070
  H     -1.254230   -2.743110   -0.128780
  H     -2.237440   -3.587610    1.182550
  H     -0.827800   -2.712810    1.616200
  O      0.424340    3.185570   -1.221940
  H      0.463820    2.206410   -1.294420
  C     -0.352870    3.636610   -2.293790
  H     -0.164450    4.733240   -2.450220
  H     -1.372210    3.483930   -2.098970
  H     -0.067450    3.070050   -3.217460
  O      1.610280   -3.651870   -0.052000
  H      1.979560   -3.229910    0.729060
  C      2.126870   -5.011350    0.117700
  H      1.853570   -5.608520   -0.723040
  H      1.713630   -5.498960    0.981460
  H      3.188110   -4.949990    0.207720
  O      3.274560    2.306600    0.517530
  H      2.644080    2.792210    1.038630
  C      4.597470    2.711690    0.849510
  H      5.247120    1.848560    0.737630
  H      4.559880    2.925840    1.963680
  H      4.929550    3.534540    0.243360
  O      3.358860   -2.831150    2.121400
  H      4.091350   -2.852730    1.514100
  C      3.641120   -3.747470    3.181370
  H      2.977510   -3.535000    4.067220
  H      4.686580   -3.635100    3.401050
  H      3.433400   -4.740230    2.738360
  O      1.773660    3.756970    2.800200
  H      0.898530    4.098280    2.993340
  C      2.180380    3.062080    3.966420
  H      3.232770    2.898070    3.883160
  H      1.691240    2.090800    4.012130
  H      1.956630    3.604610    4.860120
  O     -1.067800    3.683150    3.321120
  H     -1.590320    3.548860    4.123940
  C     -1.130550    2.517110    2.536160
  H     -0.381580    2.558470    1.776540
  H     -2.140000    2.432490    2.145820
  H     -0.993570    1.636890    3.133920
  O     -5.348650   -0.184870   -1.046450
  H     -5.941090   -0.480590   -1.751930
  C     -4.016710   -0.113400   -1.571910
  H     -3.587840    0.910970   -1.542960
  H     -4.003080   -0.545620   -2.608720
  H     -3.383100   -0.696120   -0.970930
  O     -4.884850    2.451650    0.388670
  H     -5.255710    1.588580    0.052330
  C     -4.838590    2.407550    1.830960
  H     -4.292170    3.261540    2.189680
  H     -4.389120    1.554990    2.168390
  H     -5.809450    2.542950    2.279990
  O      4.559850   -3.574200   -1.043490
  H      3.980280   -3.097710   -1.685220
  C      5.567340   -4.217360   -1.782160
  H      5.574810   -5.260520   -1.504950
  H      6.506860   -3.802510   -1.639180
  H      5.334240   -4.161600   -2.859810
  O     -5.532510   -1.358910    2.243540
  H     -5.067750   -0.886210    2.966710
  C     -6.811660   -0.884830    2.086860
  H     -7.255820   -1.295150    1.186480
  H     -6.769390    0.187560    1.893450
  H     -7.505960   -1.066730    2.977120
  O      0.491100   -3.864060   -4.820530
  H      0.718580   -4.772630   -5.130180
  C      1.275710   -3.673120   -3.662620
  H      0.919730   -2.759420   -3.138800
  H      2.332200   -3.480450   -3.875180
  H      1.192580   -4.534210   -3.013360
  O     -3.232540   -4.388560    3.549740
  H     -2.522210   -4.278230    4.162900
  C     -4.454560   -3.802050    4.071560
  H     -5.235690   -3.850190    3.294870
  H     -4.322130   -2.763670    4.407180
  H     -4.798700   -4.402630    4.931480
  O      4.393950   -1.421840   -4.583710
  H      4.965330   -0.669670   -4.713220
  C      4.796280   -2.437740   -5.537200
  H      4.056720   -3.203950   -5.611930
  H      5.754230   -2.917500   -5.301940
  H      4.911110   -2.042240   -6.592270
  O      1.483640    2.915880   -5.640690
  H      1.665260    2.957100   -6.566100
  C      2.703740    3.062490   -4.972280
  H      2.478810    2.992890   -3.867500
  H      3.148570    3.964530   -5.279590
  H      3.325060    2.234890   -5.192240
  O     -0.102630   -1.825360    6.263360
  H     -0.798420   -1.244480    6.532100
  C      1.059750   -1.068180    6.120960
  H      1.908080   -1.702040    6.135430
  H      1.106950   -0.387720    6.929730
  H      0.978110   -0.534930    5.193610
  O      2.658200    6.275210    0.223950
  H      2.603200    5.671780    0.975150
  C      2.959690    5.572640   -1.057810
  H      3.458860    6.237790   -1.724740
  H      2.041460    5.230850   -1.574750
  H      3.554680    4.684470   -0.846800

----------------------------
CARTESIAN COORDINATES (A.U.)
----------------------------
  NO LB      ZA    FRAG     MASS         X           Y           Z
   0 O     8.0000    0    15.999    0.000000    0.000000    0.000000
   1 H     1.0000    0     1.008   -1.323300   -1.188921    0.168828
   2 C     6.0000    0    12.011    1.659085   -0.451512    1.947911
   3 H     1.0000    0     1.008    1.825230    1.357258    2.974429
   4 H     1.0000    0     1.008    3.471767   -1.146610    1.255836
   5 H     1.0000    0     1.008    0.967861   -1.822187    3.282246
   6 O     8.0000    0    15.999   -0.114045    1.067223   -5.327043
   7 H     1.0000    0     1.008    1.337869    0.697044   -4.254718
   8 C     6.0000    0    12.011    0.121736    0.129031   -7.884504
   9 H     1.0000    0     1.008   -0.418707    1.556057   -9.223508
  10 H     1.0000    0     1.008   -0.868083   -1.569644   -8.053389
  11 H     1.0000    0     1.008    2.047103   -0.102952   -8.290002
  12 O     8.0000    0    15.999    4.655662    1.722353   -2.912843
  13 H     1.0000    0     1.008    4.897868    2.880358   -1.543547
  14 C     6.0000    0    12.011    7.073547    1.343350   -4.012796
  15 H     1.0000    0     1.008    7.395349   -0.605449   -4.625388
  16 H     1.0000    0     1.008    8.546268    1.770503   -2.679972
  17 H     1.0000    0     1.008    7.214578    2.545499   -5.593835
  18 O     8.0000    0    15.999   -4.540785   -2.890185    2.278329
  19 H     1.0000    0     1.008   -6.249287   -3.259608    2.788726
  20 C     6.0000    0    12.011   -3.123812   -5.184974    1.755688
  21 H     1.0000    0     1.008   -2.370151   -5.183727   -0.243359
  22 H     1.0000    0     1.008   -4.228149   -6.779600    2.234696
  23 H     1.0000    0     1.008   -1.564315   -5.126468    3.054175
  24 O     8.0000    0    15.999    0.801886    6.019855   -2.309132
  25 H     1.0000    0     1.008    0.876493    4.169511   -2.446099
  26 C     6.0000    0    12.011   -0.666828    6.872197   -4.334635
  27 H     1.0000    0     1.008   -0.310765    8.944527   -4.630245
  28 H     1.0000    0     1.008   -2.593101    6.583674   -3.966478
  29 H     1.0000    0     1.008   -0.127462    5.801554   -6.080118
  30 O     8.0000    0    15.999    3.042988   -6.901034   -0.098266
  31 H     1.0000    0     1.008    3.740826   -6.103645    1.377724
  32 C     6.0000    0    12.011    4.019202   -9.470079    0.222421
  33 H     1.0000    0     1.008    3.502740  -10.598567   -1.366348
  34 H     1.0000    0     1.008    3.238291  -10.391528    1.854691
  35 H     1.0000    0     1.008    6.024655   -9.354125    0.392534
  36 O     8.0000    0    15.999    6.188022    4.358842    0.977990
  37 H     1.0000    0     1.008    4.996587    5.276512    1.962726
  38 C     6.0000    0    12.011    8.687959    5.124351    1.605341
  39 H     1.0000    0     1.008    9.915620    3.493272    1.393919
  40 H     1.0000    0     1.008    8.616924    5.529036    3.710817
  41 H     1.0000    0     1.008    9.315499    6.679313    0.459884
  42 O     8.0000    0    15.999    6.347326   -5.350098    4.008865
  43 H     1.0000    0     1.008    7.731531   -5.390878    2.861234
  44 C     6.0000    0    12.011    6.880720   -7.081692    6.011918
  45 H     1.0000    0     1.008    5.626678   -6.680182    7.685932
  46 H     1.0000    0     1.008    8.856353   -6.869343    6.427053
  47 H     1.0000    0     1.008    6.488186   -8.957737    5.174750
  48 O     8.0000    0    15.999    3.351732    7.099644    5.291611
  49 H     1.0000    0     1.008    1.697976    7.744627    5.656593
  50 C     6.0000    0    12.011    4.120321    5.786493    7.495448
  51 H     1.0000    0     1.008    6.109050    5.476559    7.338109
  52 H     1.0000    0     1.008    3.195980    3.951039    7.581827
  53 H     1.0000    0     1.008    3.697495    6.811726    9.184296
  54 O     8.0000    0    15.999   -2.017850    6.960145    6.276007
  55 H     1.0000    0     1.008   -3.005269    6.706373    7.793117
  56 C     6.0000    0    12.011   -2.136430    4.756649    4.792648
  57 H     1.0000    0     1.008   -0.721082    4.834808    3.357174
  58 H     1.0000    0     1.008   -4.044014    4.596740    4.055012
  59 H     1.0000    0     1.008   -1.877575    3.093274    5.922251
  60 O     8.0000    0    15.999  -10.107484   -0.349354   -1.977504
  61 H     1.0000    0     1.008  -11.227033   -0.908183   -3.310668
  62 C     6.0000    0    12.011   -7.590482   -0.214295   -2.970479
  63 H     1.0000    0     1.008   -6.780035    1.721484   -2.915772
  64 H     1.0000    0     1.008   -7.564725   -1.031072   -4.929766
  65 H     1.0000    0     1.008   -6.393132   -1.315476   -1.834792
  66 O     8.0000    0    15.999   -9.231029    4.632947    0.734480
  67 H     1.0000    0     1.008   -9.931853    3.001981    0.098889
  68 C     6.0000    0    12.011   -9.143610    4.549610    3.460013
  69 H     1.0000    0     1.008   -8.111026    6.163417    4.137896
  70 H     1.0000    0     1.008   -8.294235    2.938505    4.097663
  71 H     1.0000    0     1.008  -10.978269    4.805479    4.308557
  72 O     8.0000    0    15.999    8.616868   -6.754259   -1.971910
  73 H     1.0000    0     1.008    7.521639   -5.853824   -3.184604
  74 C     6.0000    0    12.011   10.520748   -7.969655   -3.367794
  75 H     1.0000    0     1.008   10.534864   -9.940942   -2.843943
  76 H     1.0000    0     1.008   12.296183   -7.185703   -3.097601
  77 H     1.0000    0     1.008   10.080253   -7.864284   -5.404258
  78 O     8.0000    0    15.999  -10.454929   -2.567968    4.239676
  79 H     1.0000    0     1.008   -9.576660   -1.674694    5.606269
  80 C     6.0000    0    12.011  -12.872172   -1.672086    3.943594
  81 H     1.0000    0     1.008  -13.711513   -2.447479    2.242122
  82 H     1.0000    0     1.008  -12.792293    0.354437    3.578102
  83 H     1.0000    0     1.008  -14.184209   -2.015828    5.625941
  84 O     8.0000    0    15.999    0.928045   -7.302015   -9.109482
  85 H     1.0000    0     1.008    1.357919   -9.018964   -9.694635
  86 C     6.0000    0    12.011    2.410743   -6.941191   -6.921349
  87 H     1.0000    0     1.008    1.738038   -5.214548   -5.931472
  88 H     1.0000    0     1.008    4.407219   -6.577097   -7.323029
  89 H     1.0000    0     1.008    2.253650   -8.568415   -5.694425
  90 O     8.0000    0    15.999   -6.108615   -8.293177    6.708036
  91 H     1.0000    0     1.008   -4.766286   -8.084683    7.866741
  92 C     6.0000    0    12.011   -8.417898   -7.184833    7.694133
  93 H     1.0000    0     1.008   -9.894020   -7.275805    6.226402
  94 H     1.0000    0     1.008   -8.167642   -5.222579    8.328363
  95 H     1.0000    0     1.008   -9.068229   -8.319765    9.319147
  96 O     8.0000    0    15.999    8.303362   -2.686888   -8.661957
  97 H     1.0000    0     1.008    9.383114   -1.265493   -8.906695
  98 C     6.0000    0    12.011    9.063656   -4.606661  -10.463792
  99 H     1.0000    0     1.008    7.666090   -6.054588  -10.605011
 100 H     1.0000    0     1.008   10.873919   -5.513276  -10.019215
 101 H     1.0000    0     1.008    9.280653   -3.859274  -12.457585
 102 O     8.0000    0    15.999    2.803673    5.510215  -10.659359
 103 H     1.0000    0     1.008    3.146885    5.588109  -12.408131
 104 C     6.0000    0    12.011    5.109328    5.787267   -9.396247
 105 H     1.0000    0     1.008    4.684272    5.655742   -7.308516
 106 H     1.0000    0     1.008    5.949935    7.491876   -9.976979
 107 H     1.0000    0     1.008    6.283453    4.223330   -9.811912
 108 O     8.0000    0    15.999   -0.193943   -3.449430   11.836035
 109 H     1.0000    0     1.008   -1.508795   -2.351726   12.343880
 110 C     6.0000    0    12.011    2.002637   -2.018568   11.566938
 111 H     1.0000    0     1.008    3.605749   -3.216389   11.594282
 112 H     1.0000    0     1.008    2.091832   -0.732685   13.095292
 113 H     1.0000    0     1.008    1.848360   -1.010871    9.814501
 114 O     8.0000    0    15.999    5.023270   11.858428    0.423204
 115 H     1.0000    0     1.008    4.919335   10.718111    1.842766
 116 C     6.0000    0    12.011    5.593004   10.530763   -1.998971
 117 H     1.0000    0     1.008    6.536298   11.787715   -3.259286
 118 H     1.0000    0     1.008    3.857800    9.884874   -2.975846
 119 H     1.0000    0     1.008    6.717372    8.852365   -1.600220

--------------------------------
INTERNAL COORDINATES (ANGSTROEM)
--------------------------------
 O      0   0   0     0.000000000000     0.00000000     0.00000000
 H      1   0   0     0.945608494939     0.00000000     0.00000000
 C      1   2   0     1.374922460177   106.64347386     0.00000000
 H      3   1   2     1.104066255304   105.60818242   236.28226204
 H      3   1   2     1.090662878574   111.62072535   113.35545870
 H      3   1   2     1.076325149432   113.07482887   352.68177203
 O      1   2   3     2.875597987811   101.99020730   153.94674383
 H      7   1   2     0.975032315875    51.20687493   226.47600299
 C      7   1   2     1.446929934828   147.96274661   299.07632047
 H      9   7   1     1.074296629195   110.65659654   171.70086133
 H      9   7   1     1.044205042604   109.40052475    44.60717284
 H      9   7   1     1.048422764728   108.38542741   282.63660221
 O      8   7   1     1.970048858024   148.94771171   237.03272385
 H     13   8   7     0.957592968333   124.62954980    80.56869653
 C     13   8   7     1.419902975066   128.05419504   273.98126660
 H     15  13   8     1.094340925215   113.25110829   310.61473681
 H     15  13   8     1.075126699743   110.76703189   191.37567970
 H     15  13   8     1.053679117141   107.70081904    71.00037012
 O      2   1   3     2.226101216769   151.98778414    62.07991741
 H     19   2   1     0.963619093937   160.08502584    99.42782273
 C     19   2   1     1.453747542148    81.25236962   231.32121900
 H     21  19   2     1.130532817082   111.06851029   317.92583994
 H     21  19   2     1.057274670131   109.63270484   189.97008071
 H     21  19   2     1.074310812102   104.50468859    75.45188063
 O     14  13   8     2.760845955391    99.72740463   327.34802374
 H     25  14  13     0.982632345488    51.65853974    41.01590646
 C     25  14  13     1.398697568526   137.96579759   330.32192338
 H     27  25  14     1.123641312074   109.16114856   248.45366685
 H     27  25  14     1.048961415115   110.53091551   128.17842650
 H     27  25  14     1.120544991912   109.09278171     8.23385902
 O     22  21  19     3.006186528827   108.18408663   135.00641942
 H     31  22  21     0.961495025260   104.71732235   319.97488074
 C     31  22  21     1.464188918309   128.30353225    76.19053552
 H     33  31  22     1.066840497216   109.75538599    65.64896086
 H     33  31  22     1.074528802452   112.26053000   307.64246222
 H     33  31  22     1.066817223146   107.89949456   186.36232600
 O     14  13   8     1.690765595344   161.32279359   152.35305998
 H     37  14  13     0.951245137964   113.63578769   201.64663173
 C     37  14  13     1.422813936044   133.73519116    42.08501419
 H     39  37  14     1.086073502945   107.80997837   307.51941234
 H     39  37  14     1.135186336907   104.59163916   195.33546306
 H     39  37  14     1.074605542234   111.94547572    70.43654342
 O     32  31  22     2.000022175677   156.61930105   173.64458184
 H     43  32  31     0.951746072490    94.70540904    38.85213203
 C     43  32  31     1.429282844961   121.64480134   284.50924040
 H     45  43  32     1.127054548591   110.22802833   270.19388238
 H     45  43  32     1.074184775027   106.06946618   147.40425099
 H     45  43  32     1.106787186455   103.95440267    30.28533687
 O     38  37  14     2.188954476205   158.34199500   154.77730961
 H     49  38  37     0.958982842704   132.98552763   192.88739279
 C     49  38  37     1.417167018703   109.39132827   328.96965523
 H     51  49  38     1.068342744535   107.08869747    46.58688409
 H     51  49  38     1.088454033067   110.06817491   289.42977268
 H     51  49  38     1.069159741760   112.27159512   167.96489506
 O     50  49  38     2.036228453342   147.25596924    67.75508872
 H     55  50  49     0.967254313456   133.12393041    95.19834145
 C     55  50  49     1.407035552394    97.01994633   330.97344270
 H     57  55  50     1.067562295559   109.48524650   333.96185029
 H     57  55  50     1.085594382124   107.85808748   209.95727505
 H     57  55  50     1.072785060672   111.31019238    95.53928853
 O     20  19   2     3.591870201288   104.44840114     9.47127046
 H     61  20  19     0.967541989993   136.80288966   112.17956853
 C     61  20  19     1.433624893792    75.56084413    10.42073085
 H     63  61  20     1.110901200062   113.27167581   253.26670876
 H     63  61  20     1.123376553699   109.29141094   127.67151635
 H     63  61  20     1.049857700310   108.85830980    10.04057450
 O     64  63  61     2.790541929339   110.34714842    22.56471975
 H     67  64  63     0.997773300956    57.44211841   344.84585235
 C     67  64  63     1.443705386047   131.28229799    71.87663020
 H     69  67  64     1.075431901563   108.98108587   107.91316057
 H     69  67  64     1.021146825584   111.69868735   347.15199182
 H     69  67  64     1.078206956247   112.54216888   221.07773216
 O     36  33  31     2.310842966495   125.38456737   318.83804465
 H     73  36  33     0.987300105287   106.90614370   357.73226246
 C     73  36  33     1.405106492263   115.96093681   237.93945864
 H     75  73  36     1.079390555175   108.19890883   352.62180067
 H     75  73  36     1.036938587044   113.20642113   230.20716294
 H     75  73  36     1.103981118543   109.79470842   109.68932707
 O     20  19   2     2.382534779809   159.32015505   303.10551010
 H     79  20  19     0.981031088447    82.47557657   307.49582193
 C     79  20  19     1.373144271845   152.42752437    69.47005144
 H     81  79  20     1.084585060011   110.21822391    54.94708337
 H     81  79  20     1.090511115533   108.88338246   301.55392264
 H     81  79  20     1.143548410694   114.95063049   179.55773961
 O     11   9   7     3.227611493675   132.54438312   245.76763018
 H     85  11   9     0.986473374096   171.06968295   251.60425631
 C     85  11   9     1.411675070191    83.94563635    57.45636232
 H     87  85  11     1.111735959120   108.64295178    13.91681886
 H     87  85  11     1.094748648138   113.63579110   257.66030219
 H     87  85  11     1.081630774618   109.99637042   134.73509767
 O     23  21  19     2.689857507118   130.77766663   297.46549593
 H     91  23  21     0.944831521172   104.96427491   315.50165674
 C     91  23  21     1.452454120756   120.47643132    80.97548216
 H     93  91  23     1.102600967077   108.98635987    51.27317813
 H     93  91  23     1.099277723644   112.93999109   288.72841083
 H     93  91  23     1.103898130445   108.81188631   168.46515588
 O     16  15  13     2.450882428045   135.41297768   119.36497579
 H     97  16  15     0.953418928593    83.18489285    41.07760004
 C     97  16  15     1.450194958962   160.43269685   164.93474301
 H     99  97  16     1.067525798564   110.89312475    73.61209079
 H     99  97  16     1.096897956831   114.05835459   311.65749405
 H     99  97  16     1.132598288803   113.32776423   191.16919903
 O     10   9   7     2.804178057649   122.77556592    79.66606907
 H    103  10   9     0.943964290056   114.53294487   121.64460994
 C    103  10   9     1.398896147039   118.62727282   353.33854259
 H    105 103  10     1.129591303658   106.68952334   312.65205496
 H    105 103  10     1.051660271476   108.61375806   188.12374190
 H    105 103  10     1.057989935680   109.32245349    66.61365733
 O     92  91  23     4.035203938452   149.27002193    70.26497921
 H    109  92  91     0.945392239285    94.59750287    44.06545588
 C    109  92  91     1.394534537686   140.95876075   277.82995010
 H    111 109  92     1.059080577388   109.95613280   283.82587004
 H    111 109  92     1.057999321597   107.95906605   164.05439054
 H    111 109  92     1.072846062863   107.14024410    45.43943125
 O     42  39  37     3.559589810568   113.29401386    52.11619664
 H    115  42  39     0.965118751709    63.30267933    22.56594414
 C    115  42  39     1.492450844283    60.87827471   241.82533993
 H    117 115  42     1.066016339603   109.76556658   244.83343021
 H    117 115  42     1.107787750700   112.24477261   126.25152999
 H    117 115  42     1.089671633613   109.12880742     7.88045225

---------------------------
INTERNAL COORDINATES (A.U.)
---------------------------
 O      0   0   0     0.000000000000     0.00000000     0.00000000
 H      1   0   0     1.786941085343     0.00000000     0.00000000
 C      1   2   0     2.598226905112   106.64347386     0.00000000
 H      3   1   2     2.086382856228   105.60818242   236.28226204
 H      3   1   2     2.061054144940   111.62072535   113.35545870
 H      3   1   2     2.033959763479   113.07482887   352.68177203
 O      1   2   3     5.434092668217   101.99020730   153.94674383
 H      7   1   2     1.842544048726    51.20687493   226.47600299
 C      7   1   2     2.734301311797   147.96274661   299.07632047
 H      9   7   1     2.030126415774   110.65659654   171.70086133
 H      9   7   1     1.973261558181   109.40052475    44.60717284
 H      9   7   1     1.981231897905   108.38542741   282.63660221
 O      8   7   1     3.722852812109   148.94771171   237.03272385
 H     13   8   7     1.809588457917   124.62954980    80.56869653
 C     13   8   7     2.683227759614   128.05419504   273.98126660
 H     15  13   8     2.068004645798   113.25110829   310.61473681
 H     15  13   8     2.031695021781   110.76703189   191.37567970
 H     15  13   8     1.991164964429   107.70081904    71.00037012
 O      2   1   3     4.206721646082   151.98778414    62.07991741
 H     19   2   1     1.820976184958   160.08502584    99.42782273
 C     19   2   1     2.747184722520    81.25236962   231.32121900
 H     21  19   2     2.136397409696   111.06851029   317.92583994
 H     21  19   2     1.997959574879   109.63270484   189.97008071
 H     21  19   2     2.030153217584   104.50468859    75.45188063
 O     14  13   8     5.217242753634    99.72740463   327.34802374
 H     25  14  13     1.856906023306    51.65853974    41.01590646
 C     25  14  13     2.643155348695   137.96579759   330.32192338
 H     27  25  14     2.123374352580   109.16114856   248.45366685
 H     27  25  14     1.982249799618   110.53091551   128.17842650
 H     27  25  14     2.117523155451   109.09278171     8.23385902
 O     22  21  19     5.680869246966   108.18408663   135.00641942
 H     31  22  21     1.816962276869   104.71732235   319.97488074
 C     31  22  21     2.766916063927   128.30353225    76.19053552
 H     33  31  22     2.016036368315   109.75538599    65.64896086
 H     33  31  22     2.030565159646   112.26053000   307.64246222
 H     33  31  22     2.015992386695   107.89949456   186.36232600
 O     14  13   8     3.195083931857   161.32279359   152.35305998
 H     37  14  13     1.797592796976   113.63578769   201.64663173
 C     37  14  13     2.688728678649   133.73519116    42.08501419
 H     39  37  14     2.052381481875   107.80997837   307.51941234
 H     39  37  14     2.145191287723   104.59163916   195.33546306
 H     39  37  14     2.030710176816   111.94547572    70.43654342
 O     32  31  22     3.779494173799   156.61930105   173.64458184
 H     43  32  31     1.798539426041    94.70540904    38.85213203
 C     43  32  31     2.700953144888   121.64480134   284.50924040
 H     45  43  32     2.129824434828   110.22802833   270.19388238
 H     45  43  32     2.029915042029   106.06946618   147.40425099
 H     45  43  32     2.091524670932   103.95440267    30.28533687
 O     38  37  14     4.136524479649   158.34199500   154.77730961
 H     49  38  37     1.812214939839   132.98552763   192.88739279
 C     49  38  37     2.678057551375   109.39132827   328.96965523
 H     51  49  38     2.018875204332   107.08869747    46.58688409
 H     51  49  38     2.056880031859   110.06817491   289.42977268
 H     51  49  38     2.020419105340   112.27159512   167.96489506
 O     50  49  38     3.847914122915   147.25596924    67.75508872
 H     55  50  49     1.827845754287   133.12393041    95.19834145
 C     55  50  49     2.658911854715    97.01994633   330.97344270
 H     57  55  50     2.017400369508   109.48524650   333.96185029
 H     57  55  50     2.051476074739   107.85808748   209.95727505
 H     57  55  50     2.027269965231   111.31019238    95.53928853
 O     20  19   2     6.787650989027   104.44840114     9.47127046
 H     61  20  19     1.828389384156   136.80288966   112.17956853
 C     61  20  19     2.709158428039    75.56084413    10.42073085
 H     63  61  20     2.099299029962   113.27167581   253.26670876
 H     63  61  20     2.122874031759   109.29141094   127.67151635
 H     63  61  20     1.983943533174   108.85830980    10.04057450
 O     64  63  61     5.273360011675   110.34714842    22.56471975
 H     67  64  63     1.885518282545    57.44211841   344.84585235
 C     67  64  63     2.728207797695   131.28229799    71.87663020
 H     69  67  64     2.032271769637   108.98108587   107.91316057
 H     69  67  64     1.929687842877   111.69868735   347.15199182
 H     69  67  64     2.037515862996   112.54216888   221.07773216
 O     36  33  31     4.366860345174   125.38456737   318.83804465
 H     73  36  33     1.865726810984   106.90614370   357.73226246
 C     73  36  33     2.655266459372   115.96093681   237.93945864
 H     75  73  36     2.039752540821   108.19890883   352.62180067
 H     75  73  36     1.959529947208   113.20642113   230.20716294
 H     75  73  36     2.086221971067   109.79470842   109.68932707
 O     20  19   2     4.502338238382   159.32015505   303.10551010
 H     79  20  19     1.853880086028    82.47557657   307.49582193
 C     79  20  19     2.594866616149   152.42752437    69.47005144
 H     81  79  20     2.049568732364   110.21822391    54.94708337
 H     81  79  20     2.060767354353   108.88338246   301.55392264
 H     81  79  20     2.160993317092   114.95063049   179.55773961
 O     11   9   7     6.099301789741   132.54438312   245.76763018
 H     85  11   9     1.864164515446   171.06968295   251.60425631
 C     85  11   9     2.667679272746    83.94563635    57.45636232
 H     87  85  11     2.100876495969   108.64295178    13.91681886
 H     87  85  11     2.068775130461   113.63579110   257.66030219
 H     87  85  11     2.043985942048   109.99637042   134.73509767
 O     23  21  19     5.083094027725   130.77766663   297.46549593
 H     91  23  21     1.785472817711   104.96427491   315.50165674
 C     91  23  21     2.744740510314   120.47643132    80.97548216
 H     93  91  23     2.083613862773   108.98635987    51.27317813
 H     93  91  23     2.077333842808   112.93999109   288.72841083
 H     93  91  23     2.086065146289   108.81188631   168.46515588
 O     16  15  13     4.631496575445   135.41297768   119.36497579
 H     97  16  15     1.801700665938    83.18489285    41.07760004
 C     97  16  15     2.740471313232   160.43269685   164.93474301
 H     99  97  16     2.017331400182   110.89312475    73.61209079
 H     99  97  16     2.072836735268   114.05835459   311.65749405
 H     99  97  16     2.140300585586   113.32776423   191.16919903
 O     10   9   7     5.299128559708   122.77556592    79.66606907
 H    103  10   9     1.783833988406   114.53294487   121.64460994
 C    103  10   9     2.643530607701   118.62727282   353.33854259
 H    105 103  10     2.134618207173   106.68952334   312.65205496
 H    105 103  10     1.987349899014   108.61375806   188.12374190
 H    105 103  10     1.999311230880   109.32245349    66.61365733
 O     92  91  23     7.625430338195   149.27002193    70.26497921
 H    109  92  91     1.786532421383    94.59750287    44.06545588
 C    109  92  91     2.635288360522   140.95876075   277.82995010
 H    111 109  92     2.001372245018   109.95613280   283.82587004
 H    111 109  92     1.999328967693   107.95906605   164.05439054
 H    111 109  92     2.027385242666   107.14024410    45.43943125
 O     42  39  37     6.726649891070   113.29401386    52.11619664
 H    115  42  39     1.823810127442    63.30267933    22.56594414
 C    115  42  39     2.820323364034    60.87827471   241.82533993
 H    117 115  42     2.014478936134   109.76556658   244.83343021
 H    117 115  42     2.093415463335   112.24477261   126.25152999
 H    117 115  42     2.059180963430   109.12880742     7.88045225

---------------------
BASIS SET INFORMATION
---------------------
There are 3 groups of distinct atoms

 Group   1 Type O   : 18s5p2d1f contracted to 4s3p2d1f pattern {8811/311/11/1}
 Group   2 Type H   : 5s2p1d contracted to 3s2p1d pattern {311/11/1}
 Group   3 Type C   : 18s5p2d1f contracted to 4s3p2d1f pattern {8811/311/11/1}

Atom   0O    basis set group =>   1
Atom   1H    basis set group =>   2
Atom   2C    basis set group =>   3
Atom   3H    basis set group =>   2
Atom   4H    basis set group =>   2
Atom   5H    basis set group =>   2
Atom   6O    basis set group =>   1
Atom   7H    basis set group =>   2
Atom   8C    basis set group =>   3
Atom   9H    basis set group =>   2
Atom  10H    basis set group =>   2
Atom  11H    basis set group =>   2
Atom  12O    basis set group =>   1
Atom  13H    basis set group =>   2
Atom  14C    basis set group =>   3
Atom  15H    basis set group =>   2
Atom  16H    basis set group =>   2
Atom  17H    basis set group =>   2
Atom  18O    basis set group =>   1
Atom  19H    basis set group =>   2
Atom  20C    basis set group =>   3
Atom  21H    basis set group =>   2
Atom  22H    basis set group =>   2
Atom  23H    basis set group =>   2
Atom  24O    basis set group =>   1
Atom  25H    basis set group =>   2
Atom  26C    basis set group =>   3
Atom  27H    basis set group =>   2
Atom  28H    basis set group =>   2
Atom  29H    basis set group =>   2
Atom  30O    basis set group =>   1
Atom  31H    basis set group =>   2
Atom  32C    basis set group =>   3
Atom  33H    basis set group =>   2
Atom  34H    basis set group =>   2
Atom  35H    basis set group =>   2
Atom  36O    basis set group =>   1
Atom  37H    basis set group =>   2
Atom  38C    basis set group =>   3
Atom  39H    basis set group =>   2
Atom  40H    basis set group =>   2
Atom  41H    basis set group =>   2
Atom  42O    basis set group =>   1
Atom  43H    basis set group =>   2
Atom  44C    basis set group =>   3
Atom  45H    basis set group =>   2
Atom  46H    basis set group =>   2
Atom  47H    basis set group =>   2
Atom  48O    basis set group =>   1
Atom  49H    basis set group =>   2
Atom  50C    basis set group =>   3
Atom  51H    basis set group =>   2
Atom  52H    basis set group =>   2
Atom  53H    basis set group =>   2
Atom  54O    basis set group =>   1
Atom  55H    basis set group =>   2
Atom  56C    basis set group =>   3
Atom  57H    basis set group =>   2
Atom  58H    basis set group =>   2
Atom  59H    basis set group =>   2
Atom  60O    basis set group =>   1
Atom  61H    basis set group =>   2
Atom  62C    basis set group =>   3
Atom  63H    basis set group =>   2
Atom  64H    basis set group =>   2
Atom  65H    basis set group =>   2
Atom  66O    basis set group =>   1
Atom  67H    basis set group =>   2
Atom  68C    basis set group =>   3
Atom  69H    basis set group =>   2
Atom  70H    basis set group =>   2
Atom  71H    basis set group =>   2
Atom  72O    basis set group =>   1
Atom  73H    basis set group =>   2
Atom  74C    basis set group =>   3
Atom  75H    basis set group =>   2
Atom  76H    basis set group =>   2
Atom  77H    basis set group =>   2
Atom  78O    basis set group =>   1
Atom  79H    basis set group =>   2
Atom  80C    basis set group =>   3
Atom  81H    basis set group =>   2
Atom  82H    basis set group =>   2
Atom  83H    basis set group =>   2
Atom  84O    basis set group =>   1
Atom  85H    basis set group =>   2
Atom  86C    basis set group =>   3
Atom  87H    basis set group =>   2
Atom  88H    basis set group =>   2
Atom  89H    basis set group =>   2
Atom  90O    basis set group =>   1
Atom  91H    basis set group =>   2
Atom  92C    basis set group =>   3
Atom  93H    basis set group =>   2
Atom  94H    basis set group =>   2
Atom  95H    basis set group =>   2
Atom  96O    basis set group =>   1
Atom  97H    basis set group =>   2
Atom  98C    basis set group =>   3
Atom  99H    basis set group =>   2
Atom 100H    basis set group =>   2
Atom 101H    basis set group =>   2
Atom 102O    basis set group =>   1
Atom 103H    basis set group =>   2
Atom 104C    basis set group =>   3
Atom 105H    basis set group =>   2
Atom 106H    basis set group =>   2
Atom 107H    basis set group =>   2
Atom 108O    basis set group =>   1
Atom 109H    basis set group =>   2
Atom 110C    basis set group =>   3
Atom 111H    basis set group =>   2
Atom 112H    basis set group =>   2
Atom 113H    basis set group =>   2
Atom 114O    basis set group =>   1
Atom 115H    basis set group =>   2
Atom 116C    basis set group =>   3
Atom 117H    basis set group =>   2
Atom 118H    basis set group =>   2
Atom 119H    basis set group =>   2
---------------------------------
AUXILIARY/C BASIS SET INFORMATION
---------------------------------
There are 3 groups of distinct atoms

 Group   1 Type O   : 8s6p5d3f1g contracted to 8s6p5d3f1g pattern {11111111/111111/11111/111/1}
 Group   2 Type H   : 4s3p2d1f contracted to 4s3p2d1f pattern {1111/111/11/1}
 Group   3 Type C   : 8s6p5d3f1g contracted to 8s6p5d3f1g pattern {11111111/111111/11111/111/1}

Atom   0O    basis set group =>   1
Atom   1H    basis set group =>   2
Atom   2C    basis set group =>   3
Atom   3H    basis set group =>   2
Atom   4H    basis set group =>   2
Atom   5H    basis set group =>   2
Atom   6O    basis set group =>   1
Atom   7H    basis set group =>   2
Atom   8C    basis set group =>   3
Atom   9H    basis set group =>   2
Atom  10H    basis set group =>   2
Atom  11H    basis set group =>   2
Atom  12O    basis set group =>   1
Atom  13H    basis set group =>   2
Atom  14C    basis set group =>   3
Atom  15H    basis set group =>   2
Atom  16H    basis set group =>   2
Atom  17H    basis set group =>   2
Atom  18O    basis set group =>   1
Atom  19H    basis set group =>   2
Atom  20C    basis set group =>   3
Atom  21H    basis set group =>   2
Atom  22H    basis set group =>   2
Atom  23H    basis set group =>   2
Atom  24O    basis set group =>   1
Atom  25H    basis set group =>   2
Atom  26C    basis set group =>   3
Atom  27H    basis set group =>   2
Atom  28H    basis set group =>   2
Atom  29H    basis set group =>   2
Atom  30O    basis set group =>   1
Atom  31H    basis set group =>   2
Atom  32C    basis set group =>   3
Atom  33H    basis set group =>   2
Atom  34H    basis set group =>   2
Atom  35H    basis set group =>   2
Atom  36O    basis set group =>   1
Atom  37H    basis set group =>   2
Atom  38C    basis set group =>   3
Atom  39H    basis set group =>   2
Atom  40H    basis set group =>   2
Atom  41H    basis set group =>   2
Atom  42O    basis set group =>   1
Atom  43H    basis set group =>   2
Atom  44C    basis set group =>   3
Atom  45H    basis set group =>   2
Atom  46H    basis set group =>   2
Atom  47H    basis set group =>   2
Atom  48O    basis set group =>   1
Atom  49H    basis set group =>   2
Atom  50C    basis set group =>   3
Atom  51H    basis set group =>   2
Atom  52H    basis set group =>   2
Atom  53H    basis set group =>   2
Atom  54O    basis set group =>   1
Atom  55H    basis set group =>   2
Atom  56C    basis set group =>   3
Atom  57H    basis set group =>   2
Atom  58H    basis set group =>   2
Atom  59H    basis set group =>   2
Atom  60O    basis set group =>   1
Atom  61H    basis set group =>   2
Atom  62C    basis set group =>   3
Atom  63H    basis set group =>   2
Atom  64H    basis set group =>   2
Atom  65H    basis set group =>   2
Atom  66O    basis set group =>   1
Atom  67H    basis set group =>   2
Atom  68C    basis set group =>   3
Atom  69H    basis set group =>   2
Atom  70H    basis set group =>   2
Atom  71H    basis set group =>   2
Atom  72O    basis set group =>   1
Atom  73H    basis set group =>   2
Atom  74C    basis set group =>   3
Atom  75H    basis set group =>   2
Atom  76H    basis set group =>   2
Atom  77H    basis set group =>   2
Atom  78O    basis set group =>   1
Atom  79H    basis set group =>   2
Atom  80C    basis set group =>   3
Atom  81H    basis set group =>   2
Atom  82H    basis set group =>   2
Atom  83H    basis set group =>   2
Atom  84O    basis set group =>   1
Atom  85H    basis set group =>   2
Atom  86C    basis set group =>   3
Atom  87H    basis set group =>   2
Atom  88H    basis set group =>   2
Atom  89H    basis set group =>   2
Atom  90O    basis set group =>   1
Atom  91H    basis set group =>   2
Atom  92C    basis set group =>   3
Atom  93H    basis set group =>   2
Atom  94H    basis set group =>   2
Atom  95H    basis set group =>   2
Atom  96O    basis set group =>   1
Atom  97H    basis set group =>   2
Atom  98C    basis set group =>   3
Atom  99H    basis set group =>   2
Atom 100H    basis set group =>   2
Atom 101H    basis set group =>   2
Atom 102O    basis set group =>   1
Atom 103H    basis set group =>   2
Atom 104C    basis set group =>   3
Atom 105H    basis set group =>   2
Atom 106H    basis set group =>   2
Atom 107H    basis set group =>   2
Atom 108O    basis set group =>   1
Atom 109H    basis set group =>   2
Atom 110C    basis set group =>   3
Atom 111H    basis set group =>   2
Atom 112H    basis set group =>   2
Atom 113H    basis set group =>   2
Atom 114O    basis set group =>   1
Atom 115H    basis set group =>   2
Atom 116C    basis set group =>   3
Atom 117H    basis set group =>   2
Atom 118H    basis set group =>   2
Atom 119H    basis set group =>   2


           ************************************************************
           *        Program running with 24 parallel MPI-processes    *
           *              working on a common directory               *
           ************************************************************
------------------------------------------------------------------------------
                           ORCA GTO INTEGRAL CALCULATION
------------------------------------------------------------------------------

                         BASIS SET STATISTICS AND STARTUP INFO

 # of primitive gaussian shells          ... 1680
 # of primitive gaussian functions       ... 3280
 # of contracted shells                  ...  880
 # of contracted basis functions         ... 2320
 Highest angular momentum                ...    3
 Maximum contraction depth               ...    8
 Integral package used                   ... LIBINT
 Integral threshhold            Thresh   ...  2.500e-11
 Primitive cut-off              TCut     ...  2.500e-12


------------------------------ INTEGRAL EVALUATION ----------------------------


 * One electron integrals 
 Pre-screening matrix                    ... done
 Shell pair data                         ... done (   0.052 sec)



           ************************************************************
           *        Program running with 24 parallel MPI-processes    *
           *              working on a common directory               *
           ************************************************************
-------------------------------------------------------------------------------
                                 ORCA SCF
-------------------------------------------------------------------------------

------------
SCF SETTINGS
------------
Hamiltonian:
 Ab initio Hamiltonian  Method          .... Hartree-Fock(GTOs)


General Settings:
 Integral files         IntName         .... input
 Hartree-Fock type      HFTyp           .... RHF
 Total Charge           Charge          ....    0
 Multiplicity           Mult            ....    1
 Number of Electrons    NEL             ....  360
 Basis Dimension        Dim             .... 2320
 Nuclear Repulsion      ENuc            ....   5835.6584320541 Eh

Convergence Acceleration:
 DIIS                   CNVDIIS         .... on
   Start iteration      DIISMaxIt       ....    12
   Startup error        DIISStart       ....  0.200000
   # of expansion vecs  DIISMaxEq       ....     5
   Bias factor          DIISBfac        ....   1.050
   Max. coefficient     DIISMaxC        ....  10.000
 Newton-Raphson         CNVNR           .... off
 SOSCF                  CNVSOSCF        .... on
   Start iteration      SOSCFMaxIt      ....   150
   Startup grad/error   SOSCFStart      ....  0.003300
 Level Shifting         CNVShift        .... on
   Level shift para.    LevelShift      ....    0.2500
   Turn off err/grad.   ShiftErr        ....    0.0010
 Zerner damping         CNVZerner       .... off
 Static damping         CNVDamp         .... on
   Fraction old density DampFac         ....    0.7000
   Max. Damping (<1)    DampMax         ....    0.9800
   Min. Damping (>=0)   DampMin         ....    0.0000
   Turn off err/grad.   DampErr         ....    0.1000
 Fernandez-Rico         CNVRico         .... off

SCF Procedure:
 Maximum # iterations   MaxIter         ....   125
 SCF integral mode      SCFMode         .... Direct
   Integral package                     .... LIBINT
 Reset frequency        DirectResetFreq ....    20
 Integral Threshold     Thresh          ....  2.500e-11 Eh
 Primitive CutOff       TCut            ....  2.500e-12 Eh

Convergence Tolerance:
 Convergence Check Mode ConvCheckMode   .... Total+1el-Energy
 Convergence forced     ConvForced      .... 1
 Energy Change          TolE            ....  1.000e-08 Eh
 1-El. energy change                    ....  1.000e-05 Eh
 Orbital Gradient       TolG            ....  1.000e-05
 Orbital Rotation angle TolX            ....  1.000e-05
 DIIS Error             TolErr          ....  5.000e-07


Diagonalization of the overlap matrix:
Smallest eigenvalue                        ... 8.027e-04
Time for diagonalization                   ...    0.903 sec
Threshold for overlap eigenvalues          ... 1.000e-08
Number of eigenvalues below threshold      ... 0
Time for construction of square roots      ...    0.924 sec
Total time needed                          ...    1.837 sec

-------------------
DFT GRID GENERATION
-------------------

General Integration Accuracy     IntAcc      ...  4.340
Radial Grid Type                 RadialGrid  ... Gauss-Chebyshev
Angular Grid (max. acc.)         AngularGrid ... Lebedev-110
Angular grid pruning method      GridPruning ... 3 (G Style)
Weight generation scheme         WeightScheme... Becke
Basis function cutoff            BFCut       ...    1.0000e-11
Integration weight cutoff        WCut        ...    1.0000e-14
Grids for H and He will be reduced by one unit

# of grid points (after initial pruning)     ... 130960 (   0.0 sec)
# of grid points (after weights+screening)   ... 114743 (   0.3 sec)
nearest neighbour list constructed           ...    0.0 sec
Grid point re-assignment to atoms done       ...    0.0 sec
Grid point division into batches done        ...    0.1 sec
Reduced shell lists constructed in    0.3 sec

Total number of grid points                  ...   114743
Total number of batches                      ...     1850
Average number of points per batch           ...       62
Average number of grid points per atom       ...      956
Average number of shells per batch           ...   288.89 (32.83%)
Average number of basis functions per batch  ...   604.48 (26.06%)
Average number of large shells per batch     ...   146.53 (50.72%)
Average number of large basis fcns per batch ...   304.91 (50.44%)
Maximum spatial batch extension              ...   6.86,  4.30,  5.52 au
Average spatial batch extension              ...   0.08,  0.08,  0.09 au

Time for grid setup =    0.648 sec

------------------------------
INITIAL GUESS: MODEL POTENTIAL
------------------------------
Loading Hartree-Fock densities                     ... done
Calculating cut-offs                               ... done
Setting up the integral package                    ... done
Initializing the effective Hamiltonian             ... done
Starting the Coulomb interaction                   ... done (   1.1 sec)
Reading the grid                                   ... done
Mapping shells                                     ... done
Starting the XC term evaluation                    ... done (   0.1 sec)
Transforming the Hamiltonian                       ... done (   0.6 sec)
Diagonalizing the Hamiltonian                      ... done (   0.9 sec)
Back transforming the eigenvectors                 ... done (   0.4 sec)
Now organizing SCF variables                       ... done
                      ------------------
                      INITIAL GUESS DONE (   4.1 sec)
                      ------------------
--------------
SCF ITERATIONS
--------------
ITER       Energy         Delta-E        Max-DP      RMS-DP      [F,P]     Damp
               ***  Starting incremental Fock matrix formation  ***
  0  -2299.4202462568   0.000000000000 0.02996295  0.00022183  0.3069700 0.7000
  1  -2300.2493591664  -0.829112909656 0.02115070  0.00016825  0.1856027 0.7000
                               ***Turning on DIIS***
  2  -2300.7356298886  -0.486270722110 0.01469876  0.00010476  0.1104460 0.7000
  3  -2306.5896164075  -5.853986518911 0.03720216  0.00020071  0.0831118 0.0000
  4  -2301.4494272536   5.140189153912 0.00510498  0.00003951  0.0065314 0.0000
                      *** Initiating the SOSCF procedure ***
                           *** Shutting down DIIS ***
                      *** Re-Reading the Fockian *** 
                      *** Removing any level shift *** 
ITER      Energy       Delta-E        Grad      Rot      Max-DP    RMS-DP
  5  -2301.78175573  -0.3323284790  0.000785  0.000785  0.002226  0.000019
               *** Restarting incremental Fock matrix formation ***
  6  -2301.73607313   0.0456826013  0.000264  0.000273  0.000957  0.000009
  7  -2301.73617376  -0.0001006307  0.000088  0.000200  0.000626  0.000006
  8  -2301.73619071  -0.0000169516  0.000061  0.000031  0.000102  0.000001
  9  -2301.73619235  -0.0000016373  0.000014  0.000007  0.000030  0.000000
 10  -2301.73619243  -0.0000000756  0.000003  0.000007  0.000010  0.000000
                  ***Gradient check signals convergence***
              ***Rediagonalizing the Fockian in SOSCF/NRSCF***

               *****************************************************
               *                     SUCCESS                       *
               *           SCF CONVERGED AFTER  11 CYCLES          *
               *****************************************************


----------------
TOTAL SCF ENERGY
----------------

Total Energy       :        -2301.73619244 Eh          -62633.42602 eV

Components:
Nuclear Repulsion  :         5835.65843205 Eh          158796.33899 eV
Electronic Energy  :        -8137.39462450 Eh         -221429.76500 eV
One Electron Energy:       -14801.90870220 Eh         -402780.41275 eV
Two Electron Energy:         6664.51407770 Eh          181350.64774 eV

Virial components:
Potential Energy   :        -4601.43071475 Eh         -125211.29537 eV
Kinetic Energy     :         2299.69452231 Eh           62577.86935 eV
Virial Ratio       :            2.00088780


---------------
SCF CONVERGENCE
---------------

  Last Energy change         ...   -1.6149e-08  Tolerance :   1.0000e-08
  Last MAX-Density change    ...    3.4057e-06  Tolerance :   1.0000e-07
  Last RMS-Density change    ...    2.2656e-08  Tolerance :   5.0000e-09
  Last Orbital Gradient      ...    1.0924e-06  Tolerance :   1.0000e-05
  Last Orbital Rotation      ...    2.9475e-06  Tolerance :   1.0000e-05

             **** THE GBW FILE WAS UPDATED (input.gbw) ****
             **** DENSITY FILE WAS UPDATED (input.scfp) ****
             **** ENERGY FILE WAS UPDATED (input.en.tmp) ****
             **** THE GBW FILE WAS UPDATED (input.gbw) ****
             **** DENSITY FILE WAS UPDATED (input.scfp) ****
----------------
ORBITAL ENERGIES
----------------

  NO   OCC          E(Eh)            E(eV) 
   0   2.0000     -20.571643      -559.7829 
   1   2.0000     -20.565933      -559.6275 
   2   2.0000     -20.560134      -559.4697 
   3   2.0000     -20.559769      -559.4598 
   4   2.0000     -20.558215      -559.4175 
   5   2.0000     -20.556007      -559.3574 
   6   2.0000     -20.551754      -559.2417 
   7   2.0000     -20.549557      -559.1819 
   8   2.0000     -20.549260      -559.1738 
   9   2.0000     -20.545289      -559.0657 
  10   2.0000     -20.545209      -559.0636 
  11   2.0000     -20.535219      -558.7917 
  12   2.0000     -20.530251      -558.6565 
  13   2.0000     -20.526112      -558.5439 
  14   2.0000     -20.524416      -558.4978 
  15   2.0000     -20.515089      -558.2439 
  16   2.0000     -20.508180      -558.0560 
  17   2.0000     -20.508109      -558.0540 
  18   2.0000     -20.494106      -557.6730 
  19   2.0000     -20.483826      -557.3932 
  20   2.0000     -11.287213      -307.1407 
  21   2.0000     -11.284292      -307.0612 
  22   2.0000     -11.274691      -306.7999 
  23   2.0000     -11.274204      -306.7867 
  24   2.0000     -11.271459      -306.7120 
  25   2.0000     -11.268593      -306.6340 
  26   2.0000     -11.265542      -306.5510 
  27   2.0000     -11.265469      -306.5490 
  28   2.0000     -11.252151      -306.1866 
  29   2.0000     -11.248459      -306.0861 
  30   2.0000     -11.246924      -306.0444 
  31   2.0000     -11.244592      -305.9809 
  32   2.0000     -11.244557      -305.9800 
  33   2.0000     -11.243492      -305.9510 
  34   2.0000     -11.241322      -305.8919 
  35   2.0000     -11.240594      -305.8721 
  36   2.0000     -11.237502      -305.7880 
  37   2.0000     -11.224624      -305.4375 
  38   2.0000     -11.209508      -305.0262 
  39   2.0000     -11.207418      -304.9693 
  40   2.0000      -1.376257       -37.4498 
  41   2.0000      -1.375594       -37.4318 
  42   2.0000      -1.367274       -37.2054 
  43   2.0000      -1.366774       -37.1918 
  44   2.0000      -1.362473       -37.0748 
  45   2.0000      -1.362275       -37.0694 
  46   2.0000      -1.360926       -37.0327 
  47   2.0000      -1.354793       -36.8658 
  48   2.0000      -1.352669       -36.8080 
  49   2.0000      -1.343932       -36.5702 
  50   2.0000      -1.341859       -36.5138 
  51   2.0000      -1.339858       -36.4594 
  52   2.0000      -1.335634       -36.3445 
  53   2.0000      -1.321848       -35.9693 
  54   2.0000      -1.320049       -35.9204 
  55   2.0000      -1.317323       -35.8462 
  56   2.0000      -1.308146       -35.5965 
  57   2.0000      -1.299282       -35.3553 
  58   2.0000      -1.291331       -35.1389 
  59   2.0000      -1.276838       -34.7445 
  60   2.0000      -0.940584       -25.5946 
  61   2.0000      -0.938995       -25.5513 
  62   2.0000      -0.934412       -25.4266 
  63   2.0000      -0.931291       -25.3417 
  64   2.0000      -0.929598       -25.2956 
  65   2.0000      -0.927237       -25.2314 
  66   2.0000      -0.924575       -25.1590 
  67   2.0000      -0.921654       -25.0795 
  68   2.0000      -0.919115       -25.0104 
  69   2.0000      -0.915750       -24.9188 
  70   2.0000      -0.914354       -24.8808 
  71   2.0000      -0.910792       -24.7839 
  72   2.0000      -0.903733       -24.5918 
  73   2.0000      -0.903311       -24.5803 
  74   2.0000      -0.901898       -24.5419 
  75   2.0000      -0.898303       -24.4441 
  76   2.0000      -0.895114       -24.3573 
  77   2.0000      -0.886680       -24.1278 
  78   2.0000      -0.882430       -24.0121 
  79   2.0000      -0.859465       -23.3872 
  80   2.0000      -0.715510       -19.4700 
  81   2.0000      -0.706211       -19.2170 
  82   2.0000      -0.701642       -19.0927 
  83   2.0000      -0.700187       -19.0530 
  84   2.0000      -0.698955       -19.0195 
  85   2.0000      -0.697583       -18.9822 
  86   2.0000      -0.693141       -18.8613 
  87   2.0000      -0.684353       -18.6222 
  88   2.0000      -0.684031       -18.6134 
  89   2.0000      -0.683339       -18.5946 
  90   2.0000      -0.680932       -18.5291 
  91   2.0000      -0.677123       -18.4254 
  92   2.0000      -0.673182       -18.3182 
  93   2.0000      -0.668817       -18.1994 
  94   2.0000      -0.664804       -18.0902 
  95   2.0000      -0.653953       -17.7950 
  96   2.0000      -0.651126       -17.7181 
  97   2.0000      -0.644472       -17.5370 
  98   2.0000      -0.641269       -17.4498 
  99   2.0000      -0.639882       -17.4121 
 100   2.0000      -0.636144       -17.3104 
 101   2.0000      -0.630292       -17.1511 
 102   2.0000      -0.626557       -17.0495 
 103   2.0000      -0.626298       -17.0424 
 104   2.0000      -0.626026       -17.0350 
 105   2.0000      -0.624864       -17.0034 
 106   2.0000      -0.624082       -16.9821 
 107   2.0000      -0.620885       -16.8951 
 108   2.0000      -0.615734       -16.7550 
 109   2.0000      -0.615407       -16.7461 
 110   2.0000      -0.613922       -16.7057 
 111   2.0000      -0.612882       -16.6774 
 112   2.0000      -0.611752       -16.6466 
 113   2.0000      -0.606438       -16.5020 
 114   2.0000      -0.604720       -16.4553 
 115   2.0000      -0.603329       -16.4174 
 116   2.0000      -0.600585       -16.3428 
 117   2.0000      -0.600057       -16.3284 
 118   2.0000      -0.598455       -16.2848 
 119   2.0000      -0.597205       -16.2508 
 120   2.0000      -0.594543       -16.1783 
 121   2.0000      -0.588887       -16.0244 
 122   2.0000      -0.588562       -16.0156 
 123   2.0000      -0.587969       -15.9994 
 124   2.0000      -0.584921       -15.9165 
 125   2.0000      -0.583989       -15.8912 
 126   2.0000      -0.583068       -15.8661 
 127   2.0000      -0.578203       -15.7337 
 128   2.0000      -0.575327       -15.6555 
 129   2.0000      -0.571684       -15.5563 
 130   2.0000      -0.568426       -15.4677 
 131   2.0000      -0.565002       -15.3745 
 132   2.0000      -0.562095       -15.2954 
 133   2.0000      -0.561783       -15.2869 
 134   2.0000      -0.561317       -15.2742 
 135   2.0000      -0.559297       -15.2193 
 136   2.0000      -0.557591       -15.1728 
 137   2.0000      -0.554266       -15.0823 
 138   2.0000      -0.536831       -14.6079 
 139   2.0000      -0.530997       -14.4492 
 140   2.0000      -0.520756       -14.1705 
 141   2.0000      -0.517756       -14.0889 
 142   2.0000      -0.515134       -14.0175 
 143   2.0000      -0.512026       -13.9329 
 144   2.0000      -0.503959       -13.7134 
 145   2.0000      -0.502548       -13.6750 
 146   2.0000      -0.501606       -13.6494 
 147   2.0000      -0.498119       -13.5545 
 148   2.0000      -0.494258       -13.4494 
 149   2.0000      -0.493108       -13.4182 
 150   2.0000      -0.487282       -13.2596 
 151   2.0000      -0.484496       -13.1838 
 152   2.0000      -0.483485       -13.1563 
 153   2.0000      -0.483289       -13.1510 
 154   2.0000      -0.473921       -12.8960 
 155   2.0000      -0.467376       -12.7179 
 156   2.0000      -0.466691       -12.6993 
 157   2.0000      -0.463805       -12.6208 
 158   2.0000      -0.459588       -12.5060 
 159   2.0000      -0.457156       -12.4399 
 160   2.0000      -0.455798       -12.4029 
 161   2.0000      -0.453657       -12.3446 
 162   2.0000      -0.453050       -12.3281 
 163   2.0000      -0.452467       -12.3122 
 164   2.0000      -0.449335       -12.2270 
 165   2.0000      -0.443077       -12.0567 
 166   2.0000      -0.442122       -12.0308 
 167   2.0000      -0.437502       -11.9050 
 168   2.0000      -0.436416       -11.8755 
 169   2.0000      -0.435540       -11.8517 
 170   2.0000      -0.434094       -11.8123 
 171   2.0000      -0.430240       -11.7074 
 172   2.0000      -0.429248       -11.6804 
 173   2.0000      -0.426459       -11.6045 
 174   2.0000      -0.421638       -11.4733 
 175   2.0000      -0.417834       -11.3698 
 176   2.0000      -0.414644       -11.2830 
 177   2.0000      -0.405807       -11.0426 
 178   2.0000      -0.393747       -10.7144 
 179   2.0000      -0.385218       -10.4823 
 180   0.0000       0.098124         2.6701 
 181   0.0000       0.109616         2.9828 
 182   0.0000       0.120627         3.2824 
 183   0.0000       0.126786         3.4500 
 184   0.0000       0.133432         3.6309 
 185   0.0000       0.135086         3.6759 
 186   0.0000       0.142710         3.8833 
 187   0.0000       0.145507         3.9594 
 188   0.0000       0.147889         4.0243 
 189   0.0000       0.151991         4.1359 
 190   0.0000       0.156478         4.2580 
 191   0.0000       0.158825         4.3219 
 192   0.0000       0.160740         4.3740 
 193   0.0000       0.163291         4.4434 
 194   0.0000       0.166858         4.5404 
 195   0.0000       0.170798         4.6476 
 196   0.0000       0.173123         4.7109 
 197   0.0000       0.175990         4.7889 
 198   0.0000       0.179381         4.8812 
 199   0.0000       0.181831         4.9479 
 200   0.0000       0.182791         4.9740 
 201   0.0000       0.187591         5.1046 
 202   0.0000       0.190596         5.1864 
 203   0.0000       0.193900         5.2763 
 204   0.0000       0.200359         5.4521 
 205   0.0000       0.202046         5.4980 
 206   0.0000       0.205008         5.5786 
 207   0.0000       0.205315         5.5869 
 208   0.0000       0.208466         5.6726 
 209   0.0000       0.209229         5.6934 
 210   0.0000       0.214530         5.8377 
 211   0.0000       0.216157         5.8819 
 212   0.0000       0.218940         5.9577 
 213   0.0000       0.220271         5.9939 
 214   0.0000       0.221448         6.0259 
 215   0.0000       0.223884         6.0922 
 216   0.0000       0.226120         6.1530 
 217   0.0000       0.230607         6.2751 
 218   0.0000       0.232329         6.3220 
 219   0.0000       0.234092         6.3700 
 220   0.0000       0.237151         6.4532 
 221   0.0000       0.238571         6.4919 
 222   0.0000       0.240351         6.5403 
 223   0.0000       0.241398         6.5688 
 224   0.0000       0.244900         6.6641 
 225   0.0000       0.247045         6.7224 
 226   0.0000       0.248698         6.7674 
 227   0.0000       0.253859         6.9079 
 228   0.0000       0.254155         6.9159 
 229   0.0000       0.256531         6.9806 
 230   0.0000       0.257111         6.9963 
 231   0.0000       0.261455         7.1146 
 232   0.0000       0.264099         7.1865 
 233   0.0000       0.265870         7.2347 
 234   0.0000       0.268405         7.3037 
 235   0.0000       0.269947         7.3456 
 236   0.0000       0.274048         7.4572 
 237   0.0000       0.279322         7.6007 
 238   0.0000       0.281938         7.6719 
 239   0.0000       0.285146         7.7592 
 240   0.0000       0.287037         7.8107 
 241   0.0000       0.290367         7.9013 
 242   0.0000       0.293169         7.9775 
 243   0.0000       0.296043         8.0557 
 244   0.0000       0.298277         8.1165 
 245   0.0000       0.301185         8.1957 
 246   0.0000       0.304063         8.2740 
 247   0.0000       0.304891         8.2965 
 248   0.0000       0.307804         8.3758 
 249   0.0000       0.309515         8.4223 
 250   0.0000       0.314392         8.5551 
 251   0.0000       0.314446         8.5565 
 252   0.0000       0.318023         8.6539 
 253   0.0000       0.319765         8.7013 
 254   0.0000       0.324768         8.8374 
 255   0.0000       0.327057         8.8997 
 256   0.0000       0.328520         8.9395 
 257   0.0000       0.331847         9.0300 
 258   0.0000       0.334084         9.0909 
 259   0.0000       0.335880         9.1398 
 260   0.0000       0.341943         9.3047 
 261   0.0000       0.345698         9.4069 
 262   0.0000       0.346773         9.4362 
 263   0.0000       0.351220         9.5572 
 264   0.0000       0.355689         9.6788 
 265   0.0000       0.356825         9.7097 
 266   0.0000       0.359170         9.7735 
 267   0.0000       0.364079         9.9071 
 268   0.0000       0.366084         9.9617 
 269   0.0000       0.368433        10.0256 
 270   0.0000       0.370421        10.0797 
 271   0.0000       0.372345        10.1320 
 272   0.0000       0.378053        10.2873 
 273   0.0000       0.380063        10.3420 
 274   0.0000       0.380851        10.3635 
 275   0.0000       0.387568        10.5463 
 276   0.0000       0.390144        10.6164 
 277   0.0000       0.391280        10.6473 
 278   0.0000       0.395389        10.7591 
 279   0.0000       0.396456        10.7881 
 280   0.0000       0.398862        10.8536 
 281   0.0000       0.401334        10.9208 
 282   0.0000       0.403896        10.9906 
 283   0.0000       0.404933        11.0188 
 284   0.0000       0.411059        11.1855 
 285   0.0000       0.412666        11.2292 
 286   0.0000       0.415057        11.2943 
 287   0.0000       0.420727        11.4486 
 288   0.0000       0.425984        11.5916 
 289   0.0000       0.428073        11.6484 
 290   0.0000       0.431615        11.7449 
 291   0.0000       0.433952        11.8084 
 292   0.0000       0.436273        11.8716 
 293   0.0000       0.440310        11.9814 
 294   0.0000       0.443178        12.0595 
 295   0.0000       0.445492        12.1225 
 296   0.0000       0.450584        12.2610 
 297   0.0000       0.454019        12.3545 
 298   0.0000       0.456873        12.4322 
 299   0.0000       0.457663        12.4537 
 300   0.0000       0.464777        12.6472 
 301   0.0000       0.467619        12.7246 
 302   0.0000       0.470917        12.8143 
 303   0.0000       0.473886        12.8951 
 304   0.0000       0.481578        13.1044 
 305   0.0000       0.486250        13.2315 
 306   0.0000       0.487481        13.2650 
 307   0.0000       0.490913        13.3584 
 308   0.0000       0.493618        13.4320 
 309   0.0000       0.501442        13.6449 
 310   0.0000       0.506327        13.7778 
 311   0.0000       0.509775        13.8717 
 312   0.0000       0.517025        14.0690 
 313   0.0000       0.520728        14.1697 
 314   0.0000       0.526647        14.3308 
 315   0.0000       0.530424        14.4336 
 316   0.0000       0.533034        14.5046 
 317   0.0000       0.537382        14.6229 
 318   0.0000       0.538400        14.6506 
 319   0.0000       0.540309        14.7025 
 320   0.0000       0.543876        14.7996 
 321   0.0000       0.546985        14.8842 
 322   0.0000       0.548491        14.9252 
 323   0.0000       0.550582        14.9821 
 324   0.0000       0.557976        15.1833 
 325   0.0000       0.560526        15.2527 
 326   0.0000       0.562660        15.3107 
 327   0.0000       0.566644        15.4192 
 328   0.0000       0.570989        15.5374 
 329   0.0000       0.571752        15.5582 
 330   0.0000       0.572862        15.5884 
 331   0.0000       0.576105        15.6766 
 332   0.0000       0.576693        15.6926 
 333   0.0000       0.577184        15.7060 
 334   0.0000       0.580230        15.7889 
 335   0.0000       0.586712        15.9653 
 336   0.0000       0.588313        16.0088 
 337   0.0000       0.591957        16.1080 
 338   0.0000       0.592805        16.1311 
 339   0.0000       0.595898        16.2152 
 340   0.0000       0.597504        16.2589 
 341   0.0000       0.598793        16.2940 
 342   0.0000       0.601500        16.3676 
 343   0.0000       0.603515        16.4225 
 344   0.0000       0.604772        16.4567 
 345   0.0000       0.606154        16.4943 
 346   0.0000       0.608940        16.5701 
 347   0.0000       0.609420        16.5832 
 348   0.0000       0.611960        16.6523 
 349   0.0000       0.613260        16.6877 
 350   0.0000       0.615829        16.7576 
 351   0.0000       0.617149        16.7935 
 352   0.0000       0.619831        16.8665 
 353   0.0000       0.619994        16.8709 
 354   0.0000       0.621291        16.9062 
 355   0.0000       0.622814        16.9476 
 356   0.0000       0.624325        16.9887 
[...]
  VA   - Mayer's total valence
  BVA  - Mayer's bonded valence
  FA   - Mayer's free valence

  ATOM       NA         ZA         QA         VA         BVA        FA
  0 O      8.4058     8.0000    -0.4058     1.9793     1.9793    -0.0000
  1 H      0.7386     1.0000     0.2614     1.0058     1.0058    -0.0000
  2 C      6.0867     6.0000    -0.0867     3.9281     3.9281     0.0000
  3 H      0.9624     1.0000     0.0376     0.9528     0.9528    -0.0000
  4 H      0.8991     1.0000     0.1009     0.9840     0.9840     0.0000
  5 H      0.9130     1.0000     0.0870     0.9624     0.9624    -0.0000
  6 O      8.4981     8.0000    -0.4981     1.9035     1.9035    -0.0000
  7 H      0.7081     1.0000     0.2919     0.9826     0.9826     0.0000
  8 C      6.1017     6.0000    -0.1017     3.8944     3.8944    -0.0000
  9 H      0.9049     1.0000     0.0951     0.9744     0.9744    -0.0000
 10 H      0.8828     1.0000     0.1172     0.9603     0.9603    -0.0000
 11 H      0.9221     1.0000     0.0779     0.9680     0.9680    -0.0000
 12 O      8.4824     8.0000    -0.4824     1.9250     1.9250    -0.0000
 13 H      0.6848     1.0000     0.3152     0.9703     0.9703    -0.0000
 14 C      6.1042     6.0000    -0.1042     3.9341     3.9341    -0.0000
 15 H      0.9020     1.0000     0.0980     0.9876     0.9876     0.0000
 16 H      0.9245     1.0000     0.0755     0.9612     0.9612    -0.0000
 17 H      0.9307     1.0000     0.0693     0.9454     0.9454    -0.0000
 18 O      8.4744     8.0000    -0.4744     1.9312     1.9312    -0.0000
 19 H      0.7462     1.0000     0.2538     1.0120     1.0120    -0.0000
 20 C      6.0949     6.0000    -0.0949     3.8712     3.8712    -0.0000
 21 H      0.9139     1.0000     0.0861     0.9727     0.9727     0.0000
 22 H      0.8691     1.0000     0.1309     0.9856     0.9856    -0.0000
 23 H      0.9169     1.0000     0.0831     0.9680     0.9680    -0.0000
 24 O      8.4739     8.0000    -0.4739     1.9276     1.9276    -0.0000
 25 H      0.7029     1.0000     0.2971     0.9666     0.9666    -0.0000
 26 C      6.0734     6.0000    -0.0734     3.9148     3.9148    -0.0000
 27 H      0.9464     1.0000     0.0536     0.9670     0.9670    -0.0000
 28 H      0.8848     1.0000     0.1152     0.9646     0.9646    -0.0000
 29 H      0.9278     1.0000     0.0722     0.9659     0.9659    -0.0000
 30 O      8.4597     8.0000    -0.4597     1.9410     1.9410    -0.0000
 31 H      0.7319     1.0000     0.2681     0.9989     0.9989     0.0000
 32 C      6.1178     6.0000    -0.1178     3.9060     3.9060    -0.0000
 33 H      0.8954     1.0000     0.1046     0.9705     0.9705    -0.0000
 34 H      0.9045     1.0000     0.0955     0.9669     0.9669    -0.0000
 35 H      0.9076     1.0000     0.0924     0.9619     0.9619    -0.0000
 36 O      8.4510     8.0000    -0.4510     1.9547     1.9547    -0.0000
 37 H      0.7139     1.0000     0.2861     0.9826     0.9826    -0.0000
 38 C      6.0809     6.0000    -0.0809     3.9136     3.9136    -0.0000
 39 H      0.8958     1.0000     0.1042     0.9621     0.9621    -0.0000
 40 H      0.9259     1.0000     0.0741     0.9727     0.9727     0.0000
 41 H      0.9038     1.0000     0.0962     0.9429     0.9429     0.0000
 42 O      8.4334     8.0000    -0.4334     1.9549     1.9549    -0.0000
 43 H      0.7571     1.0000     0.2429     1.0048     1.0048    -0.0000
 44 C      6.0447     6.0000    -0.0447     3.9002     3.9002    -0.0000
 45 H      0.9059     1.0000     0.0941     0.9714     0.9714    -0.0000
 46 H      0.9075     1.0000     0.0925     0.9749     0.9749    -0.0000
 47 H      0.9360     1.0000     0.0640     0.9548     0.9548     0.0000
 48 O      8.4636     8.0000    -0.4636     1.9414     1.9414    -0.0000
 49 H      0.7249     1.0000     0.2751     0.9931     0.9931    -0.0000
 50 C      6.0734     6.0000    -0.0734     3.9117     3.9117    -0.0000
 51 H      0.8982     1.0000     0.1018     0.9629     0.9629     0.0000
 52 H      0.9443     1.0000     0.0557     0.9485     0.9485    -0.0000
 53 H      0.8962     1.0000     0.1038     0.9753     0.9753    -0.0000
 54 O      8.4333     8.0000    -0.4333     1.9493     1.9493    -0.0000
 55 H      0.7775     1.0000     0.2225     1.0085     1.0085    -0.0000
 56 C      6.1026     6.0000    -0.1026     3.8489     3.8489    -0.0000
 57 H      0.8567     1.0000     0.1433     0.9783     0.9783    -0.0000
 58 H      0.8662     1.0000     0.1338     0.9671     0.9671    -0.0000
 59 H      0.9444     1.0000     0.0556     0.9630     0.9630    -0.0000
 60 O      8.4432     8.0000    -0.4432     1.9552     1.9552    -0.0000
 61 H      0.7688     1.0000     0.2312     1.0071     1.0071     0.0000
 62 C      6.0258     6.0000    -0.0258     3.8623     3.8623    -0.0000
 63 H      0.9071     1.0000     0.0929     0.9700     0.9700     0.0000
 64 H      0.9487     1.0000     0.0513     0.9852     0.9852     0.0000
 65 H      0.9023     1.0000     0.0977     0.9713     0.9713    -0.0000
 66 O      8.4575     8.0000    -0.4575     1.9479     1.9479    -0.0000
 67 H      0.7297     1.0000     0.2703     1.0033     1.0033    -0.0000
 68 C      6.0865     6.0000    -0.0865     3.9178     3.9178     0.0000
 69 H      0.8915     1.0000     0.1085     0.9683     0.9683     0.0000
 70 H      0.9245     1.0000     0.0755     0.9647     0.9647     0.0000
 71 H      0.9294     1.0000     0.0706     0.9587     0.9587     0.0000
 72 O      8.4449     8.0000    -0.4449     1.9586     1.9586    -0.0000
 73 H      0.7169     1.0000     0.2831     0.9726     0.9726    -0.0000
 74 C      6.0363     6.0000    -0.0363     3.9289     3.9289    -0.0000
 75 H      0.9266     1.0000     0.0734     0.9621     0.9621    -0.0000
 76 H      0.9039     1.0000     0.0961     0.9627     0.9627    -0.0000
 77 H      0.9518     1.0000     0.0482     0.9666     0.9666    -0.0000
 78 O      8.4004     8.0000    -0.4004     1.9837     1.9837    -0.0000
 79 H      0.7630     1.0000     0.2370     0.9912     0.9912    -0.0000
 80 C      6.0414     6.0000    -0.0414     3.9319     3.9319     0.0000
 81 H      0.9012     1.0000     0.0988     0.9774     0.9774     0.0000
 82 H      0.9333     1.0000     0.0667     0.9557     0.9557    -0.0000
 83 H      0.9477     1.0000     0.0523     0.9713     0.9713    -0.0000
 84 O      8.4112     8.0000    -0.4112     1.9733     1.9733     0.0000
 85 H      0.7805     1.0000     0.2195     1.0107     1.0107     0.0000
 86 C      6.0205     6.0000    -0.0205     3.9119     3.9119     0.0000
 87 H      0.8843     1.0000     0.1157     0.9676     0.9676    -0.0000
 88 H      0.9863     1.0000     0.0137     0.9529     0.9529     0.0000
 89 H      0.9238     1.0000     0.0762     0.9765     0.9765    -0.0000
 90 O      8.4160     8.0000    -0.4160     1.9790     1.9790    -0.0000
 91 H      0.7775     1.0000     0.2225     1.0164     1.0164    -0.0000
 92 C      6.0279     6.0000    -0.0279     3.9073     3.9073    -0.0000
 93 H      0.8922     1.0000     0.1078     0.9789     0.9789    -0.0000
 94 H      0.9556     1.0000     0.0444     0.9724     0.9724    -0.0000
 95 H      0.9269     1.0000     0.0731     0.9685     0.9685    -0.0000
 96 O      8.4021     8.0000    -0.4021     1.9888     1.9888    -0.0000
 97 H      0.7725     1.0000     0.2275     1.0029     1.0029    -0.0000
 98 C      6.0579     6.0000    -0.0579     3.9138     3.9138    -0.0000
 99 H      0.8927     1.0000     0.1073     0.9594     0.9594     0.0000
100 H      0.9350     1.0000     0.0650     0.9588     0.9588    -0.0000
101 H      0.9214     1.0000     0.0786     0.9750     0.9750    -0.0000
102 O      8.3764     8.0000    -0.3764     1.9856     1.9856    -0.0000
103 H      0.7981     1.0000     0.2019     1.0225     1.0225     0.0000
104 C      6.0637     6.0000    -0.0637     3.9140     3.9140     0.0000
105 H      0.8975     1.0000     0.1025     0.9571     0.9571     0.0000
106 H      0.9154     1.0000     0.0846     0.9697     0.9697     0.0000
107 H      0.9381     1.0000     0.0619     0.9664     0.9664     0.0000
108 O      8.4105     8.0000    -0.4105     1.9579     1.9579    -0.0000
109 H      0.7818     1.0000     0.2182     1.0193     1.0193    -0.0000
110 C      6.0378     6.0000    -0.0378     3.9104     3.9104    -0.0000
111 H      0.9089     1.0000     0.0911     0.9692     0.9692    -0.0000
112 H      0.9300     1.0000     0.0700     0.9679     0.9679    -0.0000
113 H      0.9291     1.0000     0.0709     0.9635     0.9635     0.0000
114 O      8.4703     8.0000    -0.4703     1.9442     1.9442    -0.0000
115 H      0.7638     1.0000     0.2362     1.0268     1.0268    -0.0000
116 C      6.0213     6.0000    -0.0213     3.8952     3.8952    -0.0000
117 H      0.9010     1.0000     0.0990     0.9665     0.9665    -0.0000
118 H      0.9089     1.0000     0.0911     0.9643     0.9643    -0.0000
119 H      0.9500     1.0000     0.0500     0.9549     0.9549    -0.0000

  Mayer bond orders larger than 0.100000
B(  0-O ,  1-H ) :   0.9668 B(  0-O ,  2-C ) :   0.9924 B(  2-C ,  3-H ) :   0.9776 
B(  2-C ,  4-H ) :   0.9734 B(  2-C ,  5-H ) :   0.9803 B(  6-O ,  7-H ) :   0.9123 
B(  6-O ,  8-C ) :   0.9663 B(  8-C ,  9-H ) :   0.9740 B(  8-C , 10-H ) :   0.9733 
B(  8-C , 11-H ) :   0.9794 B( 12-O , 13-H ) :   0.8865 B( 12-O , 14-C ) :   0.9987 
B( 14-C , 15-H ) :   0.9736 B( 14-C , 16-H ) :   0.9821 B( 14-C , 17-H ) :   0.9763 
B( 18-O , 19-H ) :   0.9632 B( 18-O , 20-C ) :   0.9338 B( 20-C , 21-H ) :   0.9715 
B( 20-C , 22-H ) :   0.9752 B( 20-C , 23-H ) :   0.9778 B( 24-O , 25-H ) :   0.9145 
B( 24-O , 26-C ) :   0.9812 B( 26-C , 27-H ) :   0.9817 B( 26-C , 28-H ) :   0.9807 
B( 26-C , 29-H ) :   0.9697 B( 30-O , 31-H ) :   0.9433 B( 30-O , 32-C ) :   0.9716 
B( 32-C , 33-H ) :   0.9800 B( 32-C , 34-H ) :   0.9808 B( 32-C , 35-H ) :   0.9671 
B( 36-O , 37-H ) :   0.9245 B( 36-O , 38-C ) :   0.9686 B( 38-C , 39-H ) :   0.9786 
B( 38-C , 40-H ) :   0.9919 B( 38-C , 41-H ) :   0.9667 B( 42-O , 43-H ) :   0.9644 
B( 42-O , 44-C ) :   0.9543 B( 44-C , 45-H ) :   0.9760 B( 44-C , 46-H ) :   0.9878 
B( 44-C , 47-H ) :   0.9709 B( 48-O , 49-H ) :   0.9273 B( 48-O , 50-C ) :   0.9658 
B( 50-C , 51-H ) :   0.9793 B( 50-C , 52-H ) :   0.9652 B( 50-C , 53-H ) :   0.9872 
B( 54-O , 55-H ) :   0.9858 B( 54-O , 56-C ) :   0.9150 B( 56-C , 57-H ) :   0.9614 
B( 56-C , 58-H ) :   0.9840 B( 56-C , 59-H ) :   0.9741 B( 60-O , 61-H ) :   0.9865 
B( 60-O , 62-C ) :   0.9209 B( 62-C , 63-H ) :   0.9694 B( 62-C , 64-H ) :   0.9964 
B( 62-C , 65-H ) :   0.9598 B( 66-O , 67-H ) :   0.9427 B( 66-O , 68-C ) :   0.9875 
B( 68-C , 69-H ) :   0.9831 B( 68-C , 70-H ) :   0.9649 B( 68-C , 71-H ) :   0.9747 
B( 72-O , 73-H ) :   0.9441 B( 72-O , 74-C ) :   0.9838 B( 74-C , 75-H ) :   0.9750 
B( 74-C , 76-H ) :   0.9726 B( 74-C , 77-H ) :   0.9849 B( 78-O , 79-H ) :   0.9679 
B( 78-O , 80-C ) :   0.9811 B( 80-C , 81-H ) :   0.9764 B( 80-C , 82-H ) :   0.9788 
B( 80-C , 83-H ) :   0.9802 B( 84-O , 85-H ) :   0.9918 B( 84-O , 86-C ) :   0.9758 
B( 86-C , 87-H ) :   0.9702 B( 86-C , 88-H ) :   0.9645 B( 86-C , 89-H ) :   0.9870 
B( 90-O , 91-H ) :   0.9923 B( 90-O , 92-C ) :   0.9638 B( 92-C , 93-H ) :   0.9738 
B( 92-C , 94-H ) :   0.9743 B( 92-C , 95-H ) :   0.9751 B( 96-O , 97-H ) :   0.9844 
B( 96-O , 98-C ) :   0.9744 B( 98-C , 99-H ) :   0.9747 B( 98-C ,100-H ) :   0.9687 
B( 98-C ,101-H ) :   0.9831 B(102-O ,103-H ) :   0.9983 B(102-O ,104-C ) :   0.9741 
B(104-C ,105-H ) :   0.9728 B(104-C ,106-H ) :   0.9763 B(104-C ,107-H ) :   0.9759 
B(108-O ,109-H ) :   1.0006 B(108-O ,110-C ) :   0.9648 B(110-C ,111-H ) :   0.9741 
B(110-C ,112-H ) :   0.9834 B(110-C ,113-H ) :   0.9723 B(114-O ,115-H ) :   0.9867 
B(114-O ,116-C ) :   0.9522 B(116-C ,117-H ) :   0.9739 B(116-C ,118-H ) :   0.9718 
B(116-C ,119-H ) :   0.9784 

-------
TIMINGS
-------

Total SCF time: 0 days 0 hours 20 min 6 sec 

Total time                  ....    1206.665 sec
Sum of individual times     ....    1189.370 sec  ( 98.6%)

Fock matrix formation       ....    1122.527 sec  ( 93.0%)
Diagonalization             ....       9.552 sec  (  0.8%)
Density matrix formation    ....       0.667 sec  (  0.1%)
Population analysis         ....      10.422 sec  (  0.9%)
Initial guess               ....       3.475 sec  (  0.3%)
Orbital Transformation      ....       0.000 sec  (  0.0%)
Orbital Orthonormalization  ....       0.000 sec  (  0.0%)
DIIS solution               ....      32.005 sec  (  2.7%)
SOSCF solution              ....      10.073 sec  (  0.8%)


           ************************************************************
           *        Program running with 24 parallel MPI-processes    *
           *              working on a common directory               *
           ************************************************************

------------------------------------------------------------------------------
                                ORCA  MP2 
------------------------------------------------------------------------------

Freezing NCore=80 chemical core electrons

-------------
RI-MP2 ENERGY
-------------
Dimension of the basis                    ... 2320
Memory devoted to MP2                     ... 8000 MB   
Data format for buffers                   ... DOUBLE
Compression type for matrix containers    ... UNCOMPRESSED
Overall scaling of the MP2 energy         ...   1.000e+00
Calculating two index integrals           ... done (    0.178 sec)
Cholesky decomposition of V**-1           ... done (    5.117 sec)

-----------------
RI-TRANSFORMATION (AUX index driven)
-----------------

Dimension of the orbital-basis         ... 2320
Dimension of the aux-basis             ... 5640
Transformation of internal/external MOs...   40- 179 to  180-2319
Number Format for Storage              ... Double (8 Byte)
Integral mode                          ... Direct

First Phase: integral generation and transformation of MO indices
  Aux angular momentum 0               ... done (    9.819 sec)
  Aux angular momentum 1               ... done (   20.360 sec)
  Aux angular momentum 2               ... done (   25.116 sec)
  Aux angular momentum 3               ... done (   20.867 sec)
  Aux angular momentum 4               ... done (    5.926 sec)
Closing buffer VIA (12.59 GB; CompressionRatio= 1.00)
  Phase 1 completed in    82.809 sec
Second Phase: sorting and transformation of aux index

IA-Transformation
Memory available                       ... 7330 MB 
Max. # MO pairs treated in a batch     ... 6    
# of internal orbitals                 ... 140
# batches for internal orbitals        ... 1
Closing buffer IAV ( 0.54 GB; CompressionRatio= 1.00)
(ia|v) transformation done in    85.984 sec

  Phase 2 completed in    99.850 sec
RI-Integral transformation completed in   182.665 sec
Opening buffers                              ... done

Starting loop over batches of integrals:

Operator 0  - window                       ... ( 40-179)x(180-2319)
Operator 0  - Memory available             ...  8000 MB
Operator 0  - Memory needed per MO         ...  92.1 MB
Operator 0  - Number of orbitals per batch ... 6
Operator 0  - Number of batches            ... 1

OPERATOR  0   PASS   0:  MOs    40 ...   45 +   46 ...   51 +   52 ...   57 +   58 ...   63
                            +   64 ...   69 +   70 ...   75 +   76 ...   81 +   82 ...   87
                            +   88 ...   93 +   94 ...   99 +  100 ...  105 +  106 ...  111
                            +  112 ...  117 +  118 ...  123 +  124 ...  129 +  130 ...  135
                            +  136 ...  141 +  142 ...  147 +  148 ...  153 +  154 ...  159
                            +  160 ...  165 +  166 ...  171 +  172 ...  177 +  178 ...  179
  Reading integrals       ... ok
  Internal MO  42
  Internal MO  45
Time spent in pair loops =   109.953 sec
Deleting buffer (Ka|jb)[aa] ...done

-----------------------------------------------
 RI-MP2 CORRELATION ENERGY:     -8.670520119 Eh
-----------------------------------------------


-------
TIMINGS
-------

Total time                : 4453.071 sec
Integral trafo            :  182.674 sec (  4.1%)
I/O of integrals          :    0.519 sec (  0.0%)
K(i,j) Operators          :  108.605 sec (  2.4%)
T(i,j) pair energies      :    0.581 sec (  0.0%)
V-calculation             :    0.178 sec (  0.0%)
V**(-1/2)                 :    5.117 sec (  0.1%)
Gamma(ia|P)               :    0.000 sec (  0.0%)
Gamma-Trafo               :    0.000 sec (  0.0%)
D(virtual)                :    0.000 sec (  0.0%)
D(internal)               :    0.000 sec (  0.0%)
W(virtual)                :    0.000 sec (  0.0%)
W(internal)               :    0.000 sec (  0.0%)
L(virtual)                :    0.000 sec (  0.0%)
L(internal)               :    0.000 sec (  0.0%)
G(D)                      :    0.000 sec (  0.0%)
G(Z)                      :    0.000 sec (  0.0%)
Z-Vector Solution         :    0.000 sec (  0.0%)
3-Index Derivative        :    0.000 sec (  0.0%)
2-Index Derivative        :    0.000 sec (  0.0%)
Separable Gradient        :    0.000 sec (  0.0%)


---------------------------------------
MP2 TOTAL ENERGY:    -2310.406712561 Eh
---------------------------------------

-------------------------   --------------------
FINAL SINGLE POINT ENERGY     -2310.406712561342
-------------------------   --------------------


                            ***************************************
                            *     ORCA property calculations      *
                            ***************************************


  WARNING: The energy has been calculated at the MP2 level but the densities
           used in the property calculations are still SCF densities
           MP2 response densities have not been calculated 
           use %mp2 Density relaxed end
           or  %mp2 Density unrelaxed end

                                    ---------------------
                                    Active property flags
                                    ---------------------
   (+) Dipole Moment


------------------------------------------------------------------------------
                       ORCA ELECTRIC PROPERTIES CALCULATION
------------------------------------------------------------------------------

Dipole Moment Calculation                       ... on
Quadrupole Moment Calculation                   ... off
Polarizability Calculation                      ... off
GBWName                                         ... input.gbw
Electron density file                           ... input.scfp
The origin for moment calculation is the CENTER OF MASS  = ( 0.753850, -0.128462 -0.019847)

-------------
DIPOLE MOMENT
-------------
                                X             Y             Z
Electronic contribution:    -10.17812       6.59119      -0.00112
Nuclear contribution   :     12.55438      -9.73478       1.57580
                        -----------------------------------------
Total Dipole Moment    :      2.37626      -3.14358       1.57467
                        -----------------------------------------
Magnitude (a.u.)       :      4.24362
Magnitude (Debye)      :     10.78642



--------------------
Rotational spectrum 
--------------------
 
Rotational constants in cm-1:     0.001671     0.001321     0.001185 
Rotational constants in MHz :    50.090651    39.591766    35.538032 

 Dipole components along the rotational axes: 
x,y,z [a.u.] :     0.561714    -3.456548     2.396881 
x,y,z [Debye]:     1.427764    -8.785848     6.092388 

 

Timings for individual modules:

Sum of individual times         ...     5669.303 sec (=  94.488 min)
GTO integral calculation        ...        5.897 sec (=   0.098 min)   0.1 %
SCF iterations                  ...     1208.098 sec (=  20.135 min)  21.3 %
MP2 module                      ...     4455.309 sec (=  74.255 min)  78.6 %
                             ****ORCA TERMINATED NORMALLY****
TOTAL RUN TIME: 0 days 1 hours 34 minutes 31 seconds 707 msec
