
                                 *****************
                                 * O   R   C   A *
                                 *****************

           --- An Ab Initio, DFT and Semiempirical electronic structure package ---

                  #######################################################
                  #                        -***-                        #
                  #          Department of theory and spectroscopy      #
                  #               Directorship: Frank Neese             #
                  #        Max Planck Institute fuer Kohlenforschung    #
                  #                Kaiser Wilhelm Platz 1               #
                  #                 D-45470 Muelheim/Ruhr               #
                  #                      Germany                        #
                  #                                                     #
                  #                  All rights reserved                #
                  #                        -***-                        #
                  #######################################################


                         Program Version 4.2.0 -  RELEASE  -


 With contributions from (in alphabetic order):
   Daniel Aravena         : Magnetic Suceptibility
   Michael Atanasov       : Ab Initio Ligand Field Theory (pilot matlab implementation)
   Alexander A. Auer      : GIAO ZORA, VPT2
   Ute Becker             : Parallelization
   Giovanni Bistoni       : ED, misc. LED, open-shell LED, HFLED
   Martin Brehm           : Molecular dynamics
   Dmytro Bykov           : SCF Hessian
   Vijay G. Chilkuri      : MRCI spin determinant printing, contributions to CSF-ICE
   Dipayan Datta          : RHF DLPNO-CCSD density
   Achintya Kumar Dutta   : EOM-CC, STEOM-CC
   Dmitry Ganyushin       : Spin-Orbit,Spin-Spin,Magnetic field MRCI
   Miquel Garcia          : C-PCM Hessian, Gaussian charge scheme
   Yang Guo               : DLPNO-NEVPT2, CIM, IAO-localization
   Andreas Hansen         : Spin unrestricted coupled pair/coupled cluster methods
   Benjamin Helmich-Paris : CASSCF linear response (MC-RPA)
   Lee Huntington         : MR-EOM, pCC
   Robert Izsak           : Overlap fitted RIJCOSX, COSX-SCS-MP3, EOM
   Christian Kollmar      : KDIIS, OOCD, Brueckner-CCSD(T), CCSD density
   Simone Kossmann        : Meta GGA functionals, TD-DFT gradient, OOMP2, MP2 Hessian
   Martin Krupicka        : AUTO-CI
   Lucas Lang             : DCDCAS
   Dagmar Lenk            : GEPOL surface, SMD
   Dimitrios Liakos       : Extrapolation schemes; Compound Job, initial MDCI parallelization
   Dimitrios Manganas     : Further ROCIS development; embedding schemes
   Dimitrios Pantazis     : SARC Basis sets
   Taras Petrenko         : DFT Hessian,TD-DFT gradient, ASA, ECA, R-Raman, ABS, FL, XAS/XES, NRVS
   Peter Pinski           : DLPNO-MP2, DLPNO-MP2 Gradient
   Christoph Reimann      : Effective Core Potentials
   Marius Retegan         : Local ZFS, SOC
   Christoph Riplinger    : Optimizer, TS searches, QM/MM, DLPNO-CCSD(T), (RO)-DLPNO pert. Triples
   Tobias Risthaus        : Range-separated hybrids, TD-DFT gradient, RPA, STAB
   Michael Roemelt        : Original ROCIS implementation
   Masaaki Saitow         : Open-shell DLPNO-CCSD energy and density
   Barbara Sandhoefer     : DKH picture change effects
   Avijit Sen             : IP-ROCIS
   Kantharuban Sivalingam : CASSCF convergence, NEVPT2, FIC-MRCI
   Bernardo de Souza      : ESD, SOC TD-DFT
   Georgi Stoychev        : AutoAux, RI-MP2 NMR
   Willem Van den Heuvel  : Paramagnetic NMR
   Boris Wezisla          : Elementary symmetry handling
   Frank Wennmohs         : Technical directorship


 We gratefully acknowledge several colleagues who have allowed us to
 interface, adapt or use parts of their codes:
   Stefan Grimme, W. Hujo, H. Kruse,             : VdW corrections, initial TS optimization,
                  C. Bannwarth                     DFT functionals, gCP, sTDA/sTD-DF
   Ed Valeev, F. Pavosevic, A. Kumar             : LibInt (2-el integral package), F12 methods
   Garnet Chan, S. Sharma, J. Yang, R. Olivares  : DMRG
   Ulf Ekstrom                                   : XCFun DFT Library
   Mihaly Kallay                                 : mrcc  (arbitrary order and MRCC methods)
   Andreas Klamt, Michael Diedenhofen            : otool_cosmo (COSMO solvation model)
   Jiri Pittner, Ondrej Demel                    : Mk-CCSD
   Frank Weinhold                                : gennbo (NPA and NBO analysis)
   Christopher J. Cramer and Donald G. Truhlar   : smd solvation model
   Lars Goerigk                                  : TD-DFT with DH, B97 family of functionals
   V. Asgeirsson, H. Jonsson                     : NEB implementation
   FAccTs GmbH                                   : IRC, NEB, NEB-TS, Multilevel, MM, QM/MM, CI optimization
   S Lehtola, MJT Oliveira, MAL Marques          : LibXC Library


 Your calculation uses the libint2 library for the computation of 2-el integrals
 For citations please refer to: http://libint.valeyev.net

 Your ORCA version has been built with support for libXC version: 4.2.3
 For citations please refer to: https://tddft.org/programs/libxc/

 This ORCA versions uses:
   CBLAS   interface :  Fast vector & matrix operations
   LAPACKE interface :  Fast linear algebra routines
   SCALAPACK package :  Parallel linear algebra routines


----- Orbital basis set information -----
Your calculation utilizes the basis: cc-pVTZ 
       H, B-Ne : Obtained from the ccRepo (grant-hill.group.shef.ac.uk/ccrepo) Feb. 2017
                 T. H. Dunning, Jr., J. Chem. Phys. 90, 1007 (1989)
            He : Obtained from the ccRepo (grant-hill.group.shef.ac.uk/ccrepo) Feb. 2017
                 D. E. Woon, T. H. Dunning, Jr., J. Chem. Phys. 100, 2975 (1994)
  Li-Be, Na-Mg : Obtained from the ccRepo (grant-hill.group.shef.ac.uk/ccrepo) Feb. 2017
                 B. P. Prascher, D. E. Woon, K. A. Peterson, T. H. Dunning, Jr., A. K. Wilson, Theor. Chem. Acc. 128, 69 (2011)
         Al-Ar : Obtained from the ccRepo (grant-hill.group.shef.ac.uk/ccrepo) Feb. 2017
                 D. E. Woon, T. H. Dunning, Jr., J. Chem. Phys. 98, 1358 (1993)
            Ca : Obtained from the Peterson Research Group Website (tyr0.chem.wsu.edu/~kipeters) Feb. 2017
                 J. Koput, K. A. Peterson, J. Phys. Chem. 106, 9595 (2002)
         Sc-Zn : Obtained from the ccRepo (grant-hill.group.shef.ac.uk/ccrepo) Feb. 2017
                 N. B. Balabanov, K. A. Peterson, J. Chem. Phys. 123, 064107 (2005)
                 N. B. Balabanov, K. A. Peterson, J. Chem. Phys. 125, 074110 (2006)
         Ga-Kr : Obtained from the ccRepo (grant-hill.group.shef.ac.uk/ccrepo) Feb. 2017
                 A. K. Wilson, D. E. Woon, K. A. Peterson, T. H. Dunning, Jr., J. Chem. Phys. 110, 7667 (1999)
             Y : Obtained from the ccRepo (grant-hill.group.shef.ac.uk/ccrepo) Feb. 2017
                 K. A. Peterson, D. Figgen, M. Dolg, H. Stoll, J. Chem. Phys. 126, 124101 (2007)
        Ag, Au : Obtained from the Peterson Research Group Website (tyr0.chem.wsu.edu/~kipeters) Feb. 2017
                 K. A. Peterson, C. Puzzarini, Theor. Chem. Acc. 114, 283 (2005)

----- AuxC basis set information -----
Your calculation utilizes the auxiliary basis: cc-pVTZ/C 
  Obtained from the EMSL Basis Set Exchange (bse.pnl.gov) Feb. 2017
  H-He, B-F, Al-Ar, Ga-Kr : F. Weigend, A. Kohn, C. Hattig, J. Chem. Phys. 116, 3175 (2002)
             Li-Be, Na-Mg : C. Haettig, Phys. Chem. Chem. Phys. 7, 59 (2005)
                       Ne : C. Haettig, Phys. Chem. Chem. Phys. 7, 59 (2005)
                            F. Weigend, A. Kohn, C. Hattig, J. Chem. Phys. 116, 3175 (2002)
                    Sc-Zn : J. G. Hill, J. A. Platts, J. Chem. Phys. 128, 044104 (2008)

================================================================================
                                        WARNINGS
                       Please study these warnings very carefully!
================================================================================


WARNING: No MP2 level density has been requested!
         To caclulate MP2 level properties use
         %mp2 Density relaxed end
         or
         %mp2 Density unrelaxed end

INFO   : the flag for use of LIBINT has been found!

================================================================================
                                       INPUT FILE
================================================================================
NAME = input.inp
|  1> ! RI-MP2 cc-pVTZ cc-pVTZ/C TightSCF FrozenCore
|  2> 
|  3> %pal nprocs 24 end
|  4> %maxcore 8000
|  5> %scf ConvForced true end
|  6> 
|  7> *xyz  0  1
|  8> O     0.00000     0.00000     0.00000
|  9> H     0.76017    -0.59164     0.09309
| 10> C    -1.01132    -0.75494    -0.59786
| 11> H    -1.96446    -0.17931    -0.44304
| 12> H    -1.12986    -1.68393    -0.01903
| 13> H    -0.73917    -0.98362    -1.67680
| 14> O     2.16826    -2.08701     0.60347
| 15> H     2.01564    -3.02661     0.89880
| 16> C     2.73068    -1.24854     1.65310
| 17> H     3.41316    -0.56092     1.19112
| 18> H     3.22664    -1.85744     2.37059
| 19> H     1.89271    -0.81542     2.10610
| 20> O     1.25462     2.65390    -0.92550
| 21> H     0.41507     2.10541    -0.83180
| 22> C     1.94485     2.69702     0.30405
| 23> H     3.00192     2.97468     0.10237
| 24> H     1.92441     1.76679     0.82872
| 25> H     1.48496     3.45977     0.87784
| 26> O    -1.67281    -0.41829     3.76592
| 27> H    -1.05753     0.16459     4.21953
| 28> C    -0.93378    -1.51589     3.44895
| 29> H    -1.20983    -2.42901     3.98115
| 30> H     0.10051    -1.32296     3.70213
| 31> H    -1.16679    -1.68345     2.39398
| 32> O    -1.71312    -3.39194    -2.20426
| 33> H    -2.22283    -2.86593    -2.85433
| 34> C    -2.45952    -4.63905    -2.05700
| 35> H    -2.57457    -4.90850    -0.99693
| 36> H    -1.82291    -5.32594    -2.42563
| 37> H    -3.41140    -4.61840    -2.65026
| 38> O     1.59665    -4.57012     1.29104
| 39> H     2.02684    -5.24666     0.67319
| 40> C     1.47945    -5.15182     2.55224
| 41> H     1.38716    -4.40399     3.33755
| 42> H     2.33628    -5.79151     2.81470
| 43> H     0.54834    -5.80549     2.52657
| 44> O     4.08583    -0.66479    -2.91683
| 45> H     5.03360    -0.81541    -2.83191
| 46> C     3.77579     0.41748    -2.05017
| 47> H     2.74074     0.40523    -1.84973
| 48> H     3.97442     1.44443    -2.46470
| 49> H     4.26025     0.24818    -1.07841
| 50> O    -0.99164     4.43343    -2.49650
| 51> H    -0.90097     4.24015    -1.52952
| 52> C     0.36680     4.57337    -2.94171
| 53> H     0.38734     5.02753    -3.92863
| 54> H     0.87983     3.62557    -3.00061
| 55> H     0.97750     5.31192    -2.33772
| 56> O    -4.25594    -2.30671    -3.35334
| 57> H    -4.28121    -1.34093    -3.48959
| 58> C    -5.60139    -2.65012    -3.54666
| 59> H    -5.77629    -3.67756    -3.23233
| 60> H    -5.90892    -2.52982    -4.61199
| 61> H    -6.13842    -2.00753    -2.93760
| 62> O     2.63635    -1.30909    -5.15921
| 63> H     3.36318    -1.48406    -4.56596
| 64> C     1.51763    -1.67885    -4.35834
| 65> H     0.74556    -2.07358    -4.99729
| 66> H     1.08158    -0.85946    -3.81186
| 67> H     1.75182    -2.47823    -3.69990
| 68> O    -5.41155     0.84679     2.32296
| 69> H    -5.92824     1.05919     1.58831
| 70> C    -4.73166    -0.38947     2.06556
| 71> H    -4.66654    -0.96633     2.98717
| 72> H    -3.74158    -0.19621     1.71558
| 73> H    -5.31285    -0.91203     1.26865
| 74> O    -0.06278     2.09245    -5.85250
| 75> H    -0.67574     1.47795    -6.21649
| 76> C     1.17429     1.51456    -6.16087
| 77> H     1.88392     2.36799    -6.49128
| 78> H     1.04376     0.78859    -6.96143
| 79> H     1.61552     1.00279    -5.33866
| 80> O     5.96769     0.09143     1.96153
| 81> H     5.96405    -0.83476     2.20329
| 82> C     5.24598     0.78171     3.07486
| 83> H     5.77642     1.73328     3.27280
| 84> H     5.13743     0.08660     3.93076
| 85> H     4.20566     1.09789     2.66420
| 86> O     5.05775    -3.83355    -0.37649
| 87> H     4.26904    -3.27212    -0.07473
| 88> C     5.92259    -2.93186    -0.86718
| 89> H     6.57930    -3.47406    -1.47743
| 90> H     6.55047    -2.52322    -0.03051
| 91> H     5.39471    -2.19684    -1.39548
| 92> O    -0.68219     5.02131     3.97284
| 93> H    -1.31901     5.12677     3.31801
| 94> C    -0.18233     3.76042     4.03339
| 95> H     0.22087     3.60321     4.98950
| 96> H     0.65316     3.66517     3.23979
| 97> H    -0.97465     3.09516     3.79824
| 98> O    -4.51476     0.40393    -4.58404
| 99> H    -4.88202     0.55227    -5.45216
|100> C    -3.60266     1.42723    -4.33703
|101> H    -2.71641     0.98783    -3.81347
|102> H    -4.14323     2.15092    -3.72013
|103> H    -3.25305     1.83463    -5.34140
|104> O     4.57097     4.76206    -0.55078
|105> H     5.23731     4.06837    -0.26253
|106> C     4.54749     4.64374    -1.93295
|107> H     3.62473     5.03538    -2.34928
|108> H     4.71900     3.62971    -2.12390
|109> H     5.30743     5.33072    -2.34401
|110> O     6.16055     2.52336    -0.18794
|111> H     5.90696     1.77174     0.37098
|112> C     7.09442     2.00857    -1.13126
|113> H     6.89128     2.37053    -2.13423
|114> H     6.94209     0.94563    -1.19548
|115> H     8.15728     2.20954    -0.88133
|116> O     2.36282    -6.34494    -0.90143
|117> H     2.35229    -5.40181    -1.21465
|118> C     1.09681    -6.86715    -1.22740
|119> H     0.50873    -7.15523    -0.36079
|120> H     1.24986    -7.76701    -1.78410
|121> H     0.53722    -6.26004    -1.95636
|122> O     5.61598    -2.80317     2.71800
|123> H     5.41765    -3.69230     2.46517
|124> C     6.85797    -2.87329     3.43292
|125> H     7.46962    -2.08107     3.17729
|126> H     7.26384    -3.82062     3.08150
|127> H     6.71501    -2.91277     4.47625
|128> *
|129> 
|130>                          ****END OF INPUT****
================================================================================

                       ****************************
                       * Single Point Calculation *
                       ****************************

---------------------------------
CARTESIAN COORDINATES (ANGSTROEM)
---------------------------------
  O      0.000000    0.000000    0.000000
  H      0.760170   -0.591640    0.093090
  C     -1.011320   -0.754940   -0.597860
  H     -1.964460   -0.179310   -0.443040
  H     -1.129860   -1.683930   -0.019030
  H     -0.739170   -0.983620   -1.676800
  O      2.168260   -2.087010    0.603470
  H      2.015640   -3.026610    0.898800
  C      2.730680   -1.248540    1.653100
  H      3.413160   -0.560920    1.191120
  H      3.226640   -1.857440    2.370590
  H      1.892710   -0.815420    2.106100
  O      1.254620    2.653900   -0.925500
  H      0.415070    2.105410   -0.831800
  C      1.944850    2.697020    0.304050
  H      3.001920    2.974680    0.102370
  H      1.924410    1.766790    0.828720
  H      1.484960    3.459770    0.877840
  O     -1.672810   -0.418290    3.765920
  H     -1.057530    0.164590    4.219530
  C     -0.933780   -1.515890    3.448950
  H     -1.209830   -2.429010    3.981150
  H      0.100510   -1.322960    3.702130
  H     -1.166790   -1.683450    2.393980
  O     -1.713120   -3.391940   -2.204260
  H     -2.222830   -2.865930   -2.854330
  C     -2.459520   -4.639050   -2.057000
  H     -2.574570   -4.908500   -0.996930
  H     -1.822910   -5.325940   -2.425630
  H     -3.411400   -4.618400   -2.650260
  O      1.596650   -4.570120    1.291040
  H      2.026840   -5.246660    0.673190
  C      1.479450   -5.151820    2.552240
  H      1.387160   -4.403990    3.337550
  H      2.336280   -5.791510    2.814700
  H      0.548340   -5.805490    2.526570
  O      4.085830   -0.664790   -2.916830
  H      5.033600   -0.815410   -2.831910
  C      3.775790    0.417480   -2.050170
  H      2.740740    0.405230   -1.849730
  H      3.974420    1.444430   -2.464700
  H      4.260250    0.248180   -1.078410
  O     -0.991640    4.433430   -2.496500
  H     -0.900970    4.240150   -1.529520
  C      0.366800    4.573370   -2.941710
  H      0.387340    5.027530   -3.928630
  H      0.879830    3.625570   -3.000610
  H      0.977500    5.311920   -2.337720
  O     -4.255940   -2.306710   -3.353340
  H     -4.281210   -1.340930   -3.489590
  C     -5.601390   -2.650120   -3.546660
  H     -5.776290   -3.677560   -3.232330
  H     -5.908920   -2.529820   -4.611990
  H     -6.138420   -2.007530   -2.937600
  O      2.636350   -1.309090   -5.159210
  H      3.363180   -1.484060   -4.565960
  C      1.517630   -1.678850   -4.358340
  H      0.745560   -2.073580   -4.997290
  H      1.081580   -0.859460   -3.811860
  H      1.751820   -2.478230   -3.699900
  O     -5.411550    0.846790    2.322960
  H     -5.928240    1.059190    1.588310
  C     -4.731660   -0.389470    2.065560
  H     -4.666540   -0.966330    2.987170
  H     -3.741580   -0.196210    1.715580
  H     -5.312850   -0.912030    1.268650
  O     -0.062780    2.092450   -5.852500
  H     -0.675740    1.477950   -6.216490
  C      1.174290    1.514560   -6.160870
  H      1.883920    2.367990   -6.491280
  H      1.043760    0.788590   -6.961430
  H      1.615520    1.002790   -5.338660
  O      5.967690    0.091430    1.961530
  H      5.964050   -0.834760    2.203290
  C      5.245980    0.781710    3.074860
  H      5.776420    1.733280    3.272800
  H      5.137430    0.086600    3.930760
  H      4.205660    1.097890    2.664200
  O      5.057750   -3.833550   -0.376490
  H      4.269040   -3.272120   -0.074730
  C      5.922590   -2.931860   -0.867180
  H      6.579300   -3.474060   -1.477430
  H      6.550470   -2.523220   -0.030510
  H      5.394710   -2.196840   -1.395480
  O     -0.682190    5.021310    3.972840
  H     -1.319010    5.126770    3.318010
  C     -0.182330    3.760420    4.033390
  H      0.220870    3.603210    4.989500
  H      0.653160    3.665170    3.239790
  H     -0.974650    3.095160    3.798240
  O     -4.514760    0.403930   -4.584040
  H     -4.882020    0.552270   -5.452160
  C     -3.602660    1.427230   -4.337030
  H     -2.716410    0.987830   -3.813470
  H     -4.143230    2.150920   -3.720130
  H     -3.253050    1.834630   -5.341400
  O      4.570970    4.762060   -0.550780
  H      5.237310    4.068370   -0.262530
  C      4.547490    4.643740   -1.932950
  H      3.624730    5.035380   -2.349280
  H      4.719000    3.629710   -2.123900
  H      5.307430    5.330720   -2.344010
  O      6.160550    2.523360   -0.187940
  H      5.906960    1.771740    0.370980
  C      7.094420    2.008570   -1.131260
  H      6.891280    2.370530   -2.134230
  H      6.942090    0.945630   -1.195480
  H      8.157280    2.209540   -0.881330
  O      2.362820   -6.344940   -0.901430
  H      2.352290   -5.401810   -1.214650
  C      1.096810   -6.867150   -1.227400
  H      0.508730   -7.155230   -0.360790
  H      1.249860   -7.767010   -1.784100
  H      0.537220   -6.260040   -1.956360
  O      5.615980   -2.803170    2.718000
  H      5.417650   -3.692300    2.465170
  C      6.857970   -2.873290    3.432920
  H      7.469620   -2.081070    3.177290
  H      7.263840   -3.820620    3.081500
  H      6.715010   -2.912770    4.476250

----------------------------
CARTESIAN COORDINATES (A.U.)
----------------------------
  NO LB      ZA    FRAG     MASS         X           Y           Z
   0 O     8.0000    0    15.999    0.000000    0.000000    0.000000
   1 H     1.0000    0     1.008    1.436513   -1.118038    0.175915
   2 C     6.0000    0    12.011   -1.911118   -1.426630   -1.129792
   3 H     1.0000    0     1.008   -3.712291   -0.338847   -0.837224
   4 H     1.0000    0     1.008   -2.135126   -3.182167   -0.035961
   5 H     1.0000    0     1.008   -1.396829   -1.858772   -3.168693
   6 O     8.0000    0    15.999    4.097418   -3.943877    1.140393
   7 H     1.0000    0     1.008    3.809008   -5.719464    1.698486
   8 C     6.0000    0    12.011    5.160237   -2.359399    3.123906
   9 H     1.0000    0     1.008    6.449938   -1.059985    2.250891
  10 H     1.0000    0     1.008    6.097466   -3.510053    4.479766
  11 H     1.0000    0     1.008    3.576704   -1.540920    3.979952
  12 O     8.0000    0    15.999    2.370888    5.015144   -1.748942
  13 H     1.0000    0     1.008    0.784369    3.978648   -1.571874
  14 C     6.0000    0    12.011    3.675234    5.096629    0.574571
  15 H     1.0000    0     1.008    5.672807    5.621331    0.193451
  16 H     1.0000    0     1.008    3.636608    3.338749    1.566054
  17 H     1.0000    0     1.008    2.806168    6.538018    1.658877
  18 O     8.0000    0    15.999   -3.161153   -0.790454    7.116557
  19 H     1.0000    0     1.008   -1.998442    0.311030    7.973756
  20 C     6.0000    0    12.011   -1.764588   -2.864617    6.517571
  21 H     1.0000    0     1.008   -2.286247   -4.590164    7.523283
  22 H     1.0000    0     1.008    0.189936   -2.500032    6.996012
  23 H     1.0000    0     1.008   -2.204914   -3.181259    4.523967
  24 O     8.0000    0    15.999   -3.237328   -6.409838   -4.165448
  25 H     1.0000    0     1.008   -4.200540   -5.415823   -5.393902
  26 C     6.0000    0    12.011   -4.647819   -8.766534   -3.887167
  27 H     1.0000    0     1.008   -4.865232   -9.275721   -1.883925
  28 H     1.0000    0     1.008   -3.444801  -10.064568   -4.583776
  29 H     1.0000    0     1.008   -6.446612   -8.727511   -5.008266
  30 O     8.0000    0    15.999    3.017231   -8.636275    2.439712
  31 H     1.0000    0     1.008    3.830173   -9.914751    1.272145
  32 C     6.0000    0    12.011    2.795755   -9.735529    4.823035
  33 H     1.0000    0     1.008    2.621353   -8.322335    6.307055
  34 H     1.0000    0     1.008    4.414929  -10.944368    5.319012
  35 H     1.0000    0     1.008    1.036212  -10.970786    4.774525
  36 O     8.0000    0    15.999    7.721100   -1.256271   -5.512010
  37 H     1.0000    0     1.008    9.512125   -1.540902   -5.351534
  38 C     6.0000    0    12.011    7.135209    0.788923   -3.874260
  39 H     1.0000    0     1.008    5.179248    0.765774   -3.495483
  40 H     1.0000    0     1.008    7.510565    2.729577   -4.657608
  41 H     1.0000    0     1.008    8.050706    0.468992   -2.037900
  42 O     8.0000    0    15.999   -1.873928    8.377969   -4.717701
  43 H     1.0000    0     1.008   -1.702587    8.012722   -2.890374
  44 C     6.0000    0    12.011    0.693152    8.642417   -5.559026
  45 H     1.0000    0     1.008    0.731967    9.500655   -7.424035
  46 H     1.0000    0     1.008    1.662638    6.851334   -5.670331
  47 H     1.0000    0     1.008    1.847207   10.038074   -4.417651
  48 O     8.0000    0    15.999   -8.042561   -4.359050   -6.336894
  49 H     1.0000    0     1.008   -8.090314   -2.533990   -6.594369
  50 C     6.0000    0    12.011  -10.585093   -5.008001   -6.702216
  51 H     1.0000    0     1.008  -10.915606   -6.949581   -6.108218
  52 H     1.0000    0     1.008  -11.166241   -4.780667   -8.715398
  53 H     1.0000    0     1.008  -11.599933   -3.793682   -5.551259
  54 O     8.0000    0    15.999    4.981979   -2.473822   -9.749494
  55 H     1.0000    0     1.008    6.355489   -2.804467   -8.628414
  56 C     6.0000    0    12.011    2.867905   -3.172567   -8.236069
  57 H     1.0000    0     1.008    1.408904   -3.918498   -9.443510
  58 H     1.0000    0     1.008    2.043890   -1.624144   -7.203371
  59 H     1.0000    0     1.008    3.310460   -4.683176   -6.991798
  60 O     8.0000    0    15.999  -10.226347    1.600201    4.389758
  61 H     1.0000    0     1.008  -11.202750    2.001579    3.001471
  62 C     6.0000    0    12.011   -8.941542   -0.735992    3.903343
  63 H     1.0000    0     1.008   -8.818483   -1.826099    5.644933
  64 H     1.0000    0     1.008   -7.070562   -0.370783    3.241976
  65 H     1.0000    0     1.008  -10.039831   -1.723487    2.397401
  66 O     8.0000    0    15.999   -0.118637    3.954157  -11.059622
  67 H     1.0000    0     1.008   -1.276964    2.792921  -11.747464
  68 C     6.0000    0    12.011    2.219087    2.862104  -11.642357
  69 H     1.0000    0     1.008    3.560093    4.474853  -12.266741
  70 H     1.0000    0     1.008    1.972421    1.490219  -13.155196
  71 H     1.0000    0     1.008    3.052890    1.894998  -10.088605
  72 O     8.0000    0    15.999   11.277300    0.172778    3.706755
  73 H     1.0000    0     1.008   11.270421   -1.577468    4.163615
  74 C     6.0000    0    12.011    9.913466    1.477218    5.810643
  75 H     1.0000    0     1.008   10.915852    3.275425    6.184696
  76 H     1.0000    0     1.008    9.708336    0.163650    7.428060
  77 H     1.0000    0     1.008    7.947546    2.074711    5.034608
  78 O     8.0000    0    15.999    9.557762   -7.244360   -0.711463
  79 H     1.0000    0     1.008    8.067316   -6.183411   -0.141219
  80 C     6.0000    0    12.011   11.192073   -5.540412   -1.638733
  81 H     1.0000    0     1.008   12.433075   -6.565022   -2.791938
  82 H     1.0000    0     1.008   12.378594   -4.768195   -0.057656
  83 H     1.0000    0     1.008   10.194524   -4.151426   -2.637075
  84 O     8.0000    0    15.999   -1.289152    9.488901    7.507580
  85 H     1.0000    0     1.008   -2.492568    9.688191    6.270130
  86 C     6.0000    0    12.011   -0.344554    7.106164    7.622002
  87 H     1.0000    0     1.008    0.417384    6.809080    9.428789
  88 H     1.0000    0     1.008    1.234294    6.926168    6.122316
  89 H     1.0000    0     1.008   -1.841822    5.849005    7.177633
  90 O     8.0000    0    15.999   -8.531660    0.763317   -8.662580
  91 H     1.0000    0     1.008   -9.225681    1.043639  -10.303089
  92 C     6.0000    0    12.011   -6.808041    2.697074   -8.195799
  93 H     1.0000    0     1.008   -5.133271    1.866728   -7.206414
  94 H     1.0000    0     1.008   -7.829570    4.064650   -7.030027
  95 H     1.0000    0     1.008   -6.147374    3.466948  -10.093783
  96 O     8.0000    0    15.999    8.637881    8.998989   -1.040823
  97 H     1.0000    0     1.008    9.897082    7.688105   -0.496110
  98 C     6.0000    0    12.011    8.593511    8.775397   -3.652746
  99 H     1.0000    0     1.008    6.849747    9.515489   -4.439496
 100 H     1.0000    0     1.008    8.917618    6.859158   -4.013589
 101 H     1.0000    0     1.008   10.029589   10.073601   -4.429537
 102 O     8.0000    0    15.999   11.641752    4.768459   -0.355155
 103 H     1.0000    0     1.008   11.162537    3.348103    0.701051
 104 C     6.0000    0    12.011   13.406511    3.795647   -2.137772
 105 H     1.0000    0     1.008   13.022632    4.479652   -4.033110
 106 H     1.0000    0     1.008   13.118649    1.786982   -2.259130
 107 H     1.0000    0     1.008   15.415025    4.175425   -1.665472
 108 O     8.0000    0    15.999    4.465083  -11.990199   -1.703456
 109 H     1.0000    0     1.008    4.445184  -10.207942   -2.295356
 110 C     6.0000    0    12.011    2.072671  -12.977033   -2.319450
 111 H     1.0000    0     1.008    0.961360  -13.521425   -0.681794
 112 H     1.0000    0     1.008    2.361893  -14.677522   -3.371460
 113 H     1.0000    0     1.008    1.015199  -11.829761   -3.696985
 114 O     8.0000    0    15.999   10.612664   -5.297224    5.136276
 115 H     1.0000    0     1.008   10.237875   -6.977436    4.658496
 116 C     6.0000    0    12.011   12.959685   -5.429731    6.487279
 117 H     1.0000    0     1.008   14.115536   -3.932652    6.004208
 118 H     1.0000    0     1.008   13.726668   -7.219925    5.823191
 119 H     1.0000    0     1.008   12.689530   -5.504338    8.458887

--------------------------------
INTERNAL COORDINATES (ANGSTROEM)
--------------------------------
 O      0   0   0     0.000000000000     0.00000000     0.00000000
 H      1   0   0     0.967761368623     0.00000000     0.00000000
 C      1   2   0     1.396473818444   106.23239575     0.00000000
 H      3   1   2     1.124186367512   106.15498731   164.34039821
 H      3   1   2     1.100962451948   108.00201378    51.51560166
 H      3   1   2     1.135989299465   109.99578482   290.46599833
 O      2   1   3     2.116444336476   167.88817583   290.39925204
 H      7   2   1     0.996674888467   129.46937053    32.27056952
 C      7   2   1     1.456389829064    91.37241236   270.74291096
 H      9   7   2     1.073324617811   107.70857861   278.49520943
 H      9   7   2     1.063732782093   109.67098251   157.42352907
 H      9   7   2     1.046420400843   103.94814032    41.50562303
 O      1   2   3     3.077954971146   103.64274604   221.52688239
 H     13   1   2     1.007206618624    33.14631201   163.84125898
 C     13   1   2     1.410698404975    87.92077581   297.00212151
 H     15  13   1     1.111380620175   108.35135251   134.86287710
 H     15  13   1     1.068187369051   113.08674048    13.96514548
 H     15  13   1     1.059491075328   106.35882680   252.32213761
 O     12   9   7     3.952928982375   161.02703608    46.84614112
 H     19  12   9     0.961291113503    71.44160308   142.24159028
 C     19  12   9     1.360647302500    48.02748627    11.04006953
 H     21  19  12     1.092350024900   115.05960538   159.73825981
 H     21  19  12     1.082163528031   108.71136286    41.00562650
 H     21  19  12     1.093312267653   103.45366519   275.77335851
 O      6   3   1     2.650810796058   106.49044495   145.81156964
 H     25   6   3     0.979327222689    80.52199653   118.02542319
 C     25   6   3     1.460849691002   160.60681524     9.47635978
 H     27  25   6     1.099812806754   111.08547989   330.67649167
 H     27  25   6     1.006468201733   102.85734177   219.26743984
 H     27  25   6     1.121810761448   111.37777142   100.51582307
 O      8   7   2     1.646762872365   173.29707208    26.10878131
 H     31   8   7     1.012180038432   111.89821350    97.29728786
 C     31   8   7     1.393820709417   128.90961609   236.11362931
 H     33  31   8     1.088337699935   111.91765693    18.38385442
 H     33  31   8     1.101020525058   113.12481561   257.35378764
 H     33  31   8     1.137940793671   106.74573796   138.75401425
 O     10   9   7     4.163955704411   120.75509391   359.08169442
 H     37  10   9     0.963413599499    94.35082909   238.42794264
 C     37  10   9     1.420750755798    49.00053925   130.61310126
 H     39  37  10     1.054350396500   108.74418482   280.89080711
 H     39  37  10     1.125129014958   115.59587609   163.50924783
 H     39  37  10     1.098945621585   109.01694645    35.13211737
 O     14  13   1     3.189002388601    85.50240996   187.07816457
 H     43  14  13     0.990266897205    46.16291498   264.69403868
 C     43  14  13     1.436368469892    79.38215070    25.46471497
 H     45  43  14     1.086597572057   109.88419869   154.40466127
 H     45  43  14     1.079348799462   112.38875120    34.15513994
 H     45  43  14     1.132790586384   114.08662274   267.76391990
 O     26  25   6     2.166858154241   141.24478495   242.56296523
 H     49  26  25     0.975670868582   108.17519433   131.56409953
 C     49  26  25     1.401976730549   150.34084530   314.78295702
 H     51  49  26     1.088589138518   110.21600398     8.19357975
 H     51  49  26     1.115336182413   111.70945371   246.26145986
 H     51  49  26     1.035508190504   105.34304012   126.13070236
 O     37  10   9     2.746703992934   136.55292305    31.16171921
 H     55  37  10     0.954380381347    29.96129194   245.33096408
 C     55  37  10     1.424657731843    90.93630589   357.30543211
 H     57  55  37     1.077107682778   108.93612235   184.19787881
 H     57  55  37     1.077116504841   113.93270958    65.04108657
 H     57  55  37     1.061789326609   111.76522676   299.13602948
 O     19  12   9     4.202468055274   133.51385541   260.90628880
 H     61  19  12     0.922926290990   147.20949615    11.42872701
 C     61  19  12     1.434170129273    51.71162751    73.36626882
 H     63  61  19     1.089207540416   109.45169205    66.35711027
 H     63  61  19     1.067751766283   110.02239453   307.18909692
 H     63  61  19     1.116206216521   106.54999739   188.59389282
 O     47  45  43     3.372276251822   108.21034252    79.13552408
 H     67  47  45     0.941179542755   143.69981984   266.63390272
 C     67  47  45     1.399782516643    97.29430896   143.24691673
 H     69  67  47     1.158053655881   107.46704701   288.68638690
 H     69  67  47     1.088561819742   109.35194089   168.34813022
 H     69  67  47     1.064247024849   113.24910691    48.76343644
 O     10   9   7     2.746764571546   128.51965864   226.97070032
 H     73  10   9     0.957229890517    80.64828789    35.33303175
 C     73  10   9     1.495612079184    82.50856386   288.82899099
 H     75  73  10     1.107263429406   107.37012438   218.67947007
 H     75  73  10     1.107937644726   109.43718762    91.22199952
 H     75  73  10     1.162272399397   107.12514626   330.97817592
 O      8   7   2     3.395872494632    88.59958144   153.20472911
 H     79   8   7     1.014064202405    19.93870520     7.94802474
 C     79   8   7     1.342300174253   123.69946128     6.29037623
 H     81  79   8     1.047689804570   105.61313740   199.79657103
 H     81  79   8     1.123047921017   109.40864990    86.36329613
 H     81  79   8     1.047860956807   109.32490365   321.24619965
 O     18  15  13     4.088272409478   156.21502885   113.51704284
 H     85  18  15     0.919491083644    82.63419668   253.31724689
 C     85  18  15     1.357707595250    58.92785412    16.05891653
 H     87  85  18     1.049491093912   108.73474694   137.14082444
 H     87  85  18     1.156251297340   108.17525901    18.19108113
 H     87  85  18     1.060960589513   107.30714175   259.99140058
 O     50  49  26     2.072897205507   155.48677151   114.06304678
 H     91  50  49     0.954210143312   130.88682216    13.75838786
 C     91  50  49     1.392868708852   116.80772252   222.01033912
 H     93  91  50     1.119207977143   108.24384841    17.62630772
 H     93  91  50     1.093850424418   105.21596743   256.81490146
 H     93  91  50     1.138841959624   107.90514632   134.33327811
 O     16  15  13     2.466424555789   146.53076655    72.19778765
 H     97  16  15     1.004142855474    81.11229317   169.27993585
 C     97  16  15     1.387423814737   101.02552508   271.71028335
 H     99  97  16     1.085448559859   111.45191667    74.26699454
 H     99  97  16     1.046008806607   105.17440403   309.29406024
 H     99  97  16     1.103820930948   107.83401269   186.12677443
 O     98  97  16     1.801386040192   160.82082645    60.35510418
 H    103  98  97     0.970377286884   123.65842127   269.25868637
 C    103  98  97     1.423718561865   128.23321598    69.67138988
 H    105 103  98     1.085462906828   111.64724250   332.64750090
 H    105 103  98     1.075718402232   107.69535380   218.66170940
 H    105 103  98     1.110191571487   114.41587303    97.14123248
 O     32  31   8     1.948981699042   160.57640533   281.18411861
 H    109  32  31     0.993836931393    73.62253018    55.54627119
 C    109  32  31     1.407743245446   103.95060756   313.04545948
 H    111 109  32     1.086204890847   113.61193281   320.38445686
 H    111 109  32     1.069152567270   107.70090863   203.73734431
 H    111 109  32     1.101411004939   113.93448594    92.50103842
 O     74  73  10     2.064150439551   170.50988672   340.22970361
 H    115  74  73     0.945415228722   149.94369768    82.72051689
 C    115  74  73     1.434770567338    91.42600972   208.17415880
 H    117 115  74     1.032993198332   110.59547007   344.47477325
 H    117 115  74     1.088880435218   101.79225222   225.88203790
 H    117 115  74     1.053818637575   112.19264163   108.65471982

---------------------------
INTERNAL COORDINATES (A.U.)
---------------------------
 O      0   0   0     0.000000000000     0.00000000     0.00000000
 H      1   0   0     1.828803949687     0.00000000     0.00000000
 C      1   2   0     2.638953070051   106.23239575     0.00000000
 H      3   1   2     2.124404358086   106.15498731   164.34039821
 H      3   1   2     2.080517517913   108.00201378    51.51560166
 H      3   1   2     2.146708667055   109.99578482   290.46599833
 O      2   1   3     3.999500173628   167.88817583   290.39925204
 H      7   2   1     1.883442583758   129.46937053    32.27056952
 C      7   2   1     2.752177921159    91.37241236   270.74291096
 H      9   7   2     2.028289580459   107.70857861   278.49520943
 H      9   7   2     2.010163637831   109.67098251   157.42352907
 H      9   7   2     1.977447978541   103.94814032    41.50562303
 O      1   2   3     5.816491948007   103.64274604   221.52688239
 H     13   1   2     1.903344669472    33.14631201   163.84125898
 C     13   1   2     2.665833642963    87.92077581   297.00212151
 H     15  13   1     2.100205002678   108.35135251   134.86287710
 H     15  13   1     2.018581587220   113.08674048    13.96514548
 H     15  13   1     2.002147973704   106.35882680   252.32213761
 O     12   9   7     7.469953203529   161.02703608    46.84614112
 H     19  12   9     1.816576939493    71.44160308   142.24159028
 C     19  12   9     2.571250766583    48.02748627    11.04006953
 H     21  19  12     2.064242389444   115.05960538   159.73825981
 H     21  19  12     2.044992700096   108.71136286    41.00562650
 H     21  19  12     2.066060764720   103.45366519   275.77335851
 O      6   3   1     5.009306437392   106.49044495   145.81156964
 H     25   6   3     1.850660246376    80.52199653   118.02542319
 C     25   6   3     2.760605838817   160.60681524     9.47635978
 H     27  25   6     2.078345003344   111.08547989   330.67649167
 H     27  25   6     1.901949263776   102.85734177   219.26743984
 H     27  25   6     2.119915113222   111.37777142   100.51582307
 O      8   7   2     3.111930836279   173.29707208    26.10878131
 H     31   8   7     1.912743070858   111.89821350    97.29728786
 C     31   8   7     2.633939420586   128.90961609   236.11362931
 H     33  31   8     2.056660194099   111.91765693    18.38385442
 H     33  31   8     2.080627260187   113.12481561   257.35378764
 H     33  31   8     2.150396456655   106.74573796   138.75401425
 O     10   9   7     7.868735915117   120.75509391   359.08169442
 H     37  10   9     1.820587856749    94.35082909   238.42794264
 C     37  10   9     2.684829833019    49.00053925   130.61310126
 H     39  37  10     1.992433498577   108.74418482   280.89080711
 H     39  37  10     2.126185703599   115.59587609   163.50924783
 H     39  37  10     2.076706260867   109.01694645    35.13211737
 O     14  13   1     6.026341154876    85.50240996   187.07816457
 H     43  14  13     1.871333235205    46.16291498   264.69403868
 C     43  14  13     2.714343035495    79.38215070    25.46471497
 H     45  43  14     2.053371828971   109.88419869   154.40466127
 H     45  43  14     2.039673633960   112.38875120    34.15513994
 H     45  43  14     2.140663975350   114.08662274   267.76391990
 O     26  25   6     4.094768482569   141.24478495   242.56296523
 H     49  26  25     1.843750738465   108.17519433   131.56409953
 C     49  26  25     2.649352066867   150.34084530   314.78295702
 H     51  49  26     2.057135344161   110.21600398     8.19357975
 H     51  49  26     2.107679932014   111.70945371   246.26145986
 H     51  49  26     1.956826889484   105.34304012   126.13070236
 O     37  10   9     5.190518317593   136.55292305    31.16171921
 H     55  37  10     1.803517548333    29.96129194   245.33096408
 C     55  37  10     2.692212947757    90.93630589   357.30543211
 H     57  55  37     2.035438537193   108.93612235   184.19787881
 H     57  55  37     2.035455208475   113.93270958    65.04108657
 H     57  55  37     2.006491039211   111.76522676   299.13602948
 O     19  12   9     7.941513711021   133.51385541   260.90628880
 H     61  19  12     1.744077931766   147.20949615    11.42872701
 C     61  19  12     2.710188773777    51.71162751    73.36626882
 H     63  61  19     2.058303954389   109.45169205    66.35711027
 H     63  61  19     2.017758417285   110.02239453   307.18909692
 H     63  61  19     2.109324058205   106.54999739   188.59389282
 O     47  45  43     6.372678563869   108.21034252    79.13552408
 H     67  47  45     1.778571578656   143.69981984   266.63390272
 C     67  47  45     2.645205603507    97.29430896   143.24691673
 H     69  67  47     2.188404258002   107.46704701   288.68638690
 H     69  67  47     2.057083719155   109.35194089   168.34813022
 H     69  67  47     2.011135415805   113.24910691    48.76343644
 O     10   9   7     5.190632794579   128.51965864   226.97070032
 H     73  10   9     1.808902340281    80.64828789    35.33303175
 C     73  10   9     2.826297232242    82.50856386   288.82899099
 H     75  73  10     2.092424639684   107.37012438   218.67947007
 H     75  73  10     2.093698721993   109.43718762    91.22199952
 H     75  73  10     2.196376527876   107.12514626   330.97817592
 O      8   7   2     6.417269000571    88.59958144   153.20472911
 H     79   8   7     1.916303624759    19.93870520     7.94802474
 C     79   8   7     2.536579718853   123.69946128     6.29037623
 H     81  79   8     1.979846803939   105.61313740   199.79657103
 H     81  79   8     2.122253005991   109.40864990    86.36329613
 H     81  79   8     1.980170234793   109.32490365   321.24619965
 O     18  15  13     7.725715214780   156.21502885   113.51704284
 H     85  18  15     1.737586330669    82.63419668   253.31724689
 C     85  18  15     2.565695524968    58.92785412    16.05891653
 H     87  85  18     1.983250747483   108.73474694   137.14082444
 H     87  85  18     2.184998293963   108.17525901    18.19108113
 H     87  85  18     2.004924953063   107.30714175   259.99140058
 O     50  49  26     3.917208022179   155.48677151   114.06304678
 H     91  50  49     1.803195845070   130.88682216    13.75838786
 C     91  50  49     2.632140400239   116.80772252   222.01033912
 H     93  91  50     2.114996563700   108.24384841    17.62630772
 H     93  91  50     2.067077733624   105.21596743   256.81490146
 H     93  91  50     2.152099413507   107.90514632   134.33327811
 O     16  15  13     4.660866940420   146.53076655    72.19778765
 H     97  16  15     1.897554996180    81.11229317   169.27993585
 C     97  16  15     2.621851041534   101.02552508   271.71028335
 H     99  97  16     2.051200510593   111.45191667    74.26699454
 H     99  97  16     1.976670178158   105.17440403   309.29406024
 H     99  97  16     2.085919260383   107.83401269   186.12677443
 O     98  97  16     3.404126277432   160.82082645    60.35510418
 H    103  98  97     1.833747318788   123.65842127   269.25868637
 C    103  98  97     2.690438173706   128.23321598    69.67138988
 H    105 103  98     2.051227622435   111.64724250   332.64750090
 H    105 103  98     2.032813177437   107.69535380   218.66170940
 H    105 103  98     2.097958026297   114.41587303    97.14123248
 O     32  31   8     3.683041651214   160.57640533   281.18411861
 H    109  32  31     1.878079622109    73.62253018    55.54627119
 C    109  32  31     2.660249200771   103.95060756   313.04545948
 H    111 109  32     2.052629769027   113.61193281   320.38445686
 H    111 109  32     2.020405547519   107.70090863   203.73734431
 H    111 109  32     2.081365160221   113.93448594    92.50103842
 O     74  73  10     3.900679029965   170.50988672   340.22970361
 H    115  74  73     1.786575865124   149.94369768    82.72051689
 C    115  74  73     2.711323437280    91.42600972   208.17415880
 H    117 115  74     1.952074243051   110.59547007   344.47477325
 H    117 115  74     2.057685815147   101.79225222   225.88203790
 H    117 115  74     1.991428619838   112.19264163   108.65471982

---------------------
BASIS SET INFORMATION
---------------------
There are 3 groups of distinct atoms

 Group   1 Type O   : 18s5p2d1f contracted to 4s3p2d1f pattern {8811/311/11/1}
 Group   2 Type H   : 5s2p1d contracted to 3s2p1d pattern {311/11/1}
 Group   3 Type C   : 18s5p2d1f contracted to 4s3p2d1f pattern {8811/311/11/1}

Atom   0O    basis set group =>   1
Atom   1H    basis set group =>   2
Atom   2C    basis set group =>   3
Atom   3H    basis set group =>   2
Atom   4H    basis set group =>   2
Atom   5H    basis set group =>   2
Atom   6O    basis set group =>   1
Atom   7H    basis set group =>   2
Atom   8C    basis set group =>   3
Atom   9H    basis set group =>   2
Atom  10H    basis set group =>   2
Atom  11H    basis set group =>   2
Atom  12O    basis set group =>   1
Atom  13H    basis set group =>   2
Atom  14C    basis set group =>   3
Atom  15H    basis set group =>   2
Atom  16H    basis set group =>   2
Atom  17H    basis set group =>   2
Atom  18O    basis set group =>   1
Atom  19H    basis set group =>   2
Atom  20C    basis set group =>   3
Atom  21H    basis set group =>   2
Atom  22H    basis set group =>   2
Atom  23H    basis set group =>   2
Atom  24O    basis set group =>   1
Atom  25H    basis set group =>   2
Atom  26C    basis set group =>   3
Atom  27H    basis set group =>   2
Atom  28H    basis set group =>   2
Atom  29H    basis set group =>   2
Atom  30O    basis set group =>   1
Atom  31H    basis set group =>   2
Atom  32C    basis set group =>   3
Atom  33H    basis set group =>   2
Atom  34H    basis set group =>   2
Atom  35H    basis set group =>   2
Atom  36O    basis set group =>   1
Atom  37H    basis set group =>   2
Atom  38C    basis set group =>   3
Atom  39H    basis set group =>   2
Atom  40H    basis set group =>   2
Atom  41H    basis set group =>   2
Atom  42O    basis set group =>   1
Atom  43H    basis set group =>   2
Atom  44C    basis set group =>   3
Atom  45H    basis set group =>   2
Atom  46H    basis set group =>   2
Atom  47H    basis set group =>   2
Atom  48O    basis set group =>   1
Atom  49H    basis set group =>   2
Atom  50C    basis set group =>   3
Atom  51H    basis set group =>   2
Atom  52H    basis set group =>   2
Atom  53H    basis set group =>   2
Atom  54O    basis set group =>   1
Atom  55H    basis set group =>   2
Atom  56C    basis set group =>   3
Atom  57H    basis set group =>   2
Atom  58H    basis set group =>   2
Atom  59H    basis set group =>   2
Atom  60O    basis set group =>   1
Atom  61H    basis set group =>   2
Atom  62C    basis set group =>   3
Atom  63H    basis set group =>   2
Atom  64H    basis set group =>   2
Atom  65H    basis set group =>   2
Atom  66O    basis set group =>   1
Atom  67H    basis set group =>   2
Atom  68C    basis set group =>   3
Atom  69H    basis set group =>   2
Atom  70H    basis set group =>   2
Atom  71H    basis set group =>   2
Atom  72O    basis set group =>   1
Atom  73H    basis set group =>   2
Atom  74C    basis set group =>   3
Atom  75H    basis set group =>   2
Atom  76H    basis set group =>   2
Atom  77H    basis set group =>   2
Atom  78O    basis set group =>   1
Atom  79H    basis set group =>   2
Atom  80C    basis set group =>   3
Atom  81H    basis set group =>   2
Atom  82H    basis set group =>   2
Atom  83H    basis set group =>   2
Atom  84O    basis set group =>   1
Atom  85H    basis set group =>   2
Atom  86C    basis set group =>   3
Atom  87H    basis set group =>   2
Atom  88H    basis set group =>   2
Atom  89H    basis set group =>   2
Atom  90O    basis set group =>   1
Atom  91H    basis set group =>   2
Atom  92C    basis set group =>   3
Atom  93H    basis set group =>   2
Atom  94H    basis set group =>   2
Atom  95H    basis set group =>   2
Atom  96O    basis set group =>   1
Atom  97H    basis set group =>   2
Atom  98C    basis set group =>   3
Atom  99H    basis set group =>   2
Atom 100H    basis set group =>   2
Atom 101H    basis set group =>   2
Atom 102O    basis set group =>   1
Atom 103H    basis set group =>   2
Atom 104C    basis set group =>   3
Atom 105H    basis set group =>   2
Atom 106H    basis set group =>   2
Atom 107H    basis set group =>   2
Atom 108O    basis set group =>   1
Atom 109H    basis set group =>   2
Atom 110C    basis set group =>   3
Atom 111H    basis set group =>   2
Atom 112H    basis set group =>   2
Atom 113H    basis set group =>   2
Atom 114O    basis set group =>   1
Atom 115H    basis set group =>   2
Atom 116C    basis set group =>   3
Atom 117H    basis set group =>   2
Atom 118H    basis set group =>   2
Atom 119H    basis set group =>   2
---------------------------------
AUXILIARY/C BASIS SET INFORMATION
---------------------------------
There are 3 groups of distinct atoms

 Group   1 Type O   : 8s6p5d3f1g contracted to 8s6p5d3f1g pattern {11111111/111111/11111/111/1}
 Group   2 Type H   : 4s3p2d1f contracted to 4s3p2d1f pattern {1111/111/11/1}
 Group   3 Type C   : 8s6p5d3f1g contracted to 8s6p5d3f1g pattern {11111111/111111/11111/111/1}

Atom   0O    basis set group =>   1
Atom   1H    basis set group =>   2
Atom   2C    basis set group =>   3
Atom   3H    basis set group =>   2
Atom   4H    basis set group =>   2
Atom   5H    basis set group =>   2
Atom   6O    basis set group =>   1
Atom   7H    basis set group =>   2
Atom   8C    basis set group =>   3
Atom   9H    basis set group =>   2
Atom  10H    basis set group =>   2
Atom  11H    basis set group =>   2
Atom  12O    basis set group =>   1
Atom  13H    basis set group =>   2
Atom  14C    basis set group =>   3
Atom  15H    basis set group =>   2
Atom  16H    basis set group =>   2
Atom  17H    basis set group =>   2
Atom  18O    basis set group =>   1
Atom  19H    basis set group =>   2
Atom  20C    basis set group =>   3
Atom  21H    basis set group =>   2
Atom  22H    basis set group =>   2
Atom  23H    basis set group =>   2
Atom  24O    basis set group =>   1
Atom  25H    basis set group =>   2
Atom  26C    basis set group =>   3
Atom  27H    basis set group =>   2
Atom  28H    basis set group =>   2
Atom  29H    basis set group =>   2
Atom  30O    basis set group =>   1
Atom  31H    basis set group =>   2
Atom  32C    basis set group =>   3
Atom  33H    basis set group =>   2
Atom  34H    basis set group =>   2
Atom  35H    basis set group =>   2
Atom  36O    basis set group =>   1
Atom  37H    basis set group =>   2
Atom  38C    basis set group =>   3
Atom  39H    basis set group =>   2
Atom  40H    basis set group =>   2
Atom  41H    basis set group =>   2
Atom  42O    basis set group =>   1
Atom  43H    basis set group =>   2
Atom  44C    basis set group =>   3
Atom  45H    basis set group =>   2
Atom  46H    basis set group =>   2
Atom  47H    basis set group =>   2
Atom  48O    basis set group =>   1
Atom  49H    basis set group =>   2
Atom  50C    basis set group =>   3
Atom  51H    basis set group =>   2
Atom  52H    basis set group =>   2
Atom  53H    basis set group =>   2
Atom  54O    basis set group =>   1
Atom  55H    basis set group =>   2
Atom  56C    basis set group =>   3
Atom  57H    basis set group =>   2
Atom  58H    basis set group =>   2
Atom  59H    basis set group =>   2
Atom  60O    basis set group =>   1
Atom  61H    basis set group =>   2
Atom  62C    basis set group =>   3
Atom  63H    basis set group =>   2
Atom  64H    basis set group =>   2
Atom  65H    basis set group =>   2
Atom  66O    basis set group =>   1
Atom  67H    basis set group =>   2
Atom  68C    basis set group =>   3
Atom  69H    basis set group =>   2
Atom  70H    basis set group =>   2
Atom  71H    basis set group =>   2
Atom  72O    basis set group =>   1
Atom  73H    basis set group =>   2
Atom  74C    basis set group =>   3
Atom  75H    basis set group =>   2
Atom  76H    basis set group =>   2
Atom  77H    basis set group =>   2
Atom  78O    basis set group =>   1
Atom  79H    basis set group =>   2
Atom  80C    basis set group =>   3
Atom  81H    basis set group =>   2
Atom  82H    basis set group =>   2
Atom  83H    basis set group =>   2
Atom  84O    basis set group =>   1
Atom  85H    basis set group =>   2
Atom  86C    basis set group =>   3
Atom  87H    basis set group =>   2
Atom  88H    basis set group =>   2
Atom  89H    basis set group =>   2
Atom  90O    basis set group =>   1
Atom  91H    basis set group =>   2
Atom  92C    basis set group =>   3
Atom  93H    basis set group =>   2
Atom  94H    basis set group =>   2
Atom  95H    basis set group =>   2
Atom  96O    basis set group =>   1
Atom  97H    basis set group =>   2
Atom  98C    basis set group =>   3
Atom  99H    basis set group =>   2
Atom 100H    basis set group =>   2
Atom 101H    basis set group =>   2
Atom 102O    basis set group =>   1
Atom 103H    basis set group =>   2
Atom 104C    basis set group =>   3
Atom 105H    basis set group =>   2
Atom 106H    basis set group =>   2
Atom 107H    basis set group =>   2
Atom 108O    basis set group =>   1
Atom 109H    basis set group =>   2
Atom 110C    basis set group =>   3
Atom 111H    basis set group =>   2
Atom 112H    basis set group =>   2
Atom 113H    basis set group =>   2
Atom 114O    basis set group =>   1
Atom 115H    basis set group =>   2
Atom 116C    basis set group =>   3
Atom 117H    basis set group =>   2
Atom 118H    basis set group =>   2
Atom 119H    basis set group =>   2


           ************************************************************
           *        Program running with 24 parallel MPI-processes    *
           *              working on a common directory               *
           ************************************************************
------------------------------------------------------------------------------
                           ORCA GTO INTEGRAL CALCULATION
------------------------------------------------------------------------------

                         BASIS SET STATISTICS AND STARTUP INFO

 # of primitive gaussian shells          ... 1680
 # of primitive gaussian functions       ... 3280
 # of contracted shells                  ...  880
 # of contracted basis functions         ... 2320
 Highest angular momentum                ...    3
 Maximum contraction depth               ...    8
 Integral package used                   ... LIBINT
 Integral threshhold            Thresh   ...  2.500e-11
 Primitive cut-off              TCut     ...  2.500e-12


------------------------------ INTEGRAL EVALUATION ----------------------------


 * One electron integrals 
 Pre-screening matrix                    ... done
 Shell pair data                         ... done (   0.051 sec)



           ************************************************************
           *        Program running with 24 parallel MPI-processes    *
           *              working on a common directory               *
           ************************************************************
-------------------------------------------------------------------------------
                                 ORCA SCF
-------------------------------------------------------------------------------

------------
SCF SETTINGS
------------
Hamiltonian:
 Ab initio Hamiltonian  Method          .... Hartree-Fock(GTOs)


General Settings:
 Integral files         IntName         .... input
 Hartree-Fock type      HFTyp           .... RHF
 Total Charge           Charge          ....    0
 Multiplicity           Mult            ....    1
 Number of Electrons    NEL             ....  360
 Basis Dimension        Dim             .... 2320
 Nuclear Repulsion      ENuc            ....   5693.3102036118 Eh

Convergence Acceleration:
 DIIS                   CNVDIIS         .... on
   Start iteration      DIISMaxIt       ....    12
   Startup error        DIISStart       ....  0.200000
   # of expansion vecs  DIISMaxEq       ....     5
   Bias factor          DIISBfac        ....   1.050
   Max. coefficient     DIISMaxC        ....  10.000
 Newton-Raphson         CNVNR           .... off
 SOSCF                  CNVSOSCF        .... on
   Start iteration      SOSCFMaxIt      ....   150
   Startup grad/error   SOSCFStart      ....  0.003300
 Level Shifting         CNVShift        .... on
   Level shift para.    LevelShift      ....    0.2500
   Turn off err/grad.   ShiftErr        ....    0.0010
 Zerner damping         CNVZerner       .... off
 Static damping         CNVDamp         .... on
   Fraction old density DampFac         ....    0.7000
   Max. Damping (<1)    DampMax         ....    0.9800
   Min. Damping (>=0)   DampMin         ....    0.0000
   Turn off err/grad.   DampErr         ....    0.1000
 Fernandez-Rico         CNVRico         .... off

SCF Procedure:
 Maximum # iterations   MaxIter         ....   125
 SCF integral mode      SCFMode         .... Direct
   Integral package                     .... LIBINT
 Reset frequency        DirectResetFreq ....    20
 Integral Threshold     Thresh          ....  2.500e-11 Eh
 Primitive CutOff       TCut            ....  2.500e-12 Eh

Convergence Tolerance:
 Convergence Check Mode ConvCheckMode   .... Total+1el-Energy
 Convergence forced     ConvForced      .... 1
 Energy Change          TolE            ....  1.000e-08 Eh
 1-El. energy change                    ....  1.000e-05 Eh
 Orbital Gradient       TolG            ....  1.000e-05
 Orbital Rotation angle TolX            ....  1.000e-05
 DIIS Error             TolErr          ....  5.000e-07


Diagonalization of the overlap matrix:
Smallest eigenvalue                        ... 6.691e-04
Time for diagonalization                   ...    0.933 sec
Threshold for overlap eigenvalues          ... 1.000e-08
Number of eigenvalues below threshold      ... 0
Time for construction of square roots      ...    0.910 sec
Total time needed                          ...    1.850 sec

-------------------
DFT GRID GENERATION
-------------------

General Integration Accuracy     IntAcc      ...  4.340
Radial Grid Type                 RadialGrid  ... Gauss-Chebyshev
Angular Grid (max. acc.)         AngularGrid ... Lebedev-110
Angular grid pruning method      GridPruning ... 3 (G Style)
Weight generation scheme         WeightScheme... Becke
Basis function cutoff            BFCut       ...    1.0000e-11
Integration weight cutoff        WCut        ...    1.0000e-14
Grids for H and He will be reduced by one unit

# of grid points (after initial pruning)     ... 130960 (   0.0 sec)
# of grid points (after weights+screening)   ... 115186 (   0.3 sec)
nearest neighbour list constructed           ...    0.0 sec
Grid point re-assignment to atoms done       ...    0.0 sec
Grid point division into batches done        ...    0.1 sec
Reduced shell lists constructed in    0.3 sec

Total number of grid points                  ...   115186
Total number of batches                      ...     1857
Average number of points per batch           ...       62
Average number of grid points per atom       ...      960
Average number of shells per batch           ...   260.95 (29.65%)
Average number of basis functions per batch  ...   536.06 (23.11%)
Average number of large shells per batch     ...   128.63 (49.29%)
Average number of large basis fcns per batch ...   267.95 (49.98%)
Maximum spatial batch extension              ...   5.08,  5.58,  6.32 au
Average spatial batch extension              ...   0.09,  0.09,  0.09 au

Time for grid setup =    0.652 sec

------------------------------
INITIAL GUESS: MODEL POTENTIAL
------------------------------
Loading Hartree-Fock densities                     ... done
Calculating cut-offs                               ... done
Setting up the integral package                    ... done
Initializing the effective Hamiltonian             ... done
Starting the Coulomb interaction                   ... done (   1.1 sec)
Reading the grid                                   ... done
Mapping shells                                     ... done
Starting the XC term evaluation                    ... done (   0.1 sec)
Transforming the Hamiltonian                       ... done (   0.6 sec)
Diagonalizing the Hamiltonian                      ... done (   0.9 sec)
Back transforming the eigenvectors                 ... done (   0.4 sec)
Now organizing SCF variables                       ... done
                      ------------------
                      INITIAL GUESS DONE (   4.0 sec)
                      ------------------
--------------
SCF ITERATIONS
--------------
ITER       Energy         Delta-E        Max-DP      RMS-DP      [F,P]     Damp
               ***  Starting incremental Fock matrix formation  ***
  0  -2299.3624897434   0.000000000000 0.02968290  0.00022017  0.3144188 0.7000
  1  -2300.1960151889  -0.833525445506 0.02115224  0.00016612  0.1873340 0.7000
                               ***Turning on DIIS***
  2  -2300.6845699056  -0.488554716744 0.01475862  0.00010301  0.1103168 0.7000
  3  -2306.2055644989  -5.520994593269 0.03728715  0.00019628  0.0829333 0.0000
  4  -2301.4091940236   4.796370475245 0.00706659  0.00003924  0.0062815 0.0000
                      *** Initiating the SOSCF procedure ***
                           *** Shutting down DIIS ***
                      *** Re-Reading the Fockian *** 
                      *** Removing any level shift *** 
ITER      Energy       Delta-E        Grad      Rot      Max-DP    RMS-DP
  5  -2301.72918510  -0.3199910768  0.000697  0.000697  0.003054  0.000019
               *** Restarting incremental Fock matrix formation ***
  6  -2301.68858508   0.0406000220  0.000237  0.000382  0.001446  0.000009
  7  -2301.68869112  -0.0001060417  0.000096  0.000303  0.000994  0.000006
  8  -2301.68870988  -0.0000187582  0.000055  0.000034  0.000125  0.000001
  9  -2301.68871149  -0.0000016096  0.000015  0.000007  0.000035  0.000000
 10  -2301.68871159  -0.0000001049  0.000003  0.000008  0.000012  0.000000
                  ***Gradient check signals convergence***
              ***Rediagonalizing the Fockian in SOSCF/NRSCF***

               *****************************************************
               *                     SUCCESS                       *
               *           SCF CONVERGED AFTER  11 CYCLES          *
               *****************************************************


----------------
TOTAL SCF ENERGY
----------------

Total Energy       :        -2301.68871161 Eh          -62632.13400 eV

Components:
Nuclear Repulsion  :         5693.31020361 Eh          154922.84677 eV
Electronic Energy  :        -7994.99891522 Eh         -217554.98076 eV
One Electron Energy:       -14512.65597870 Eh         -394909.44599 eV
Two Electron Energy:         6517.65706347 Eh          177354.46522 eV

Virial components:
Potential Energy   :        -4601.48502020 Eh         -125212.77309 eV
Kinetic Energy     :         2299.79630859 Eh           62580.63909 eV
Virial Ratio       :            2.00082286


---------------
SCF CONVERGENCE
---------------

  Last Energy change         ...   -1.7494e-08  Tolerance :   1.0000e-08
  Last MAX-Density change    ...    5.7502e-06  Tolerance :   1.0000e-07
  Last RMS-Density change    ...    2.6988e-08  Tolerance :   5.0000e-09
  Last Orbital Gradient      ...    1.1679e-06  Tolerance :   1.0000e-05
  Last Orbital Rotation      ...    3.6277e-06  Tolerance :   1.0000e-05

             **** THE GBW FILE WAS UPDATED (input.gbw) ****
             **** DENSITY FILE WAS UPDATED (input.scfp) ****
             **** ENERGY FILE WAS UPDATED (input.en.tmp) ****
             **** THE GBW FILE WAS UPDATED (input.gbw) ****
             **** DENSITY FILE WAS UPDATED (input.scfp) ****
----------------
ORBITAL ENERGIES
----------------

  NO   OCC          E(Eh)            E(eV) 
   0   2.0000     -20.590418      -560.2938 
   1   2.0000     -20.588856      -560.2513 
   2   2.0000     -20.586027      -560.1743 
   3   2.0000     -20.572805      -559.8145 
   4   2.0000     -20.569758      -559.7316 
   5   2.0000     -20.569100      -559.7137 
   6   2.0000     -20.567544      -559.6713 
   7   2.0000     -20.562137      -559.5242 
   8   2.0000     -20.552641      -559.2658 
   9   2.0000     -20.550137      -559.1977 
  10   2.0000     -20.541801      -558.9708 
  11   2.0000     -20.534855      -558.7818 
  12   2.0000     -20.533908      -558.7560 
  13   2.0000     -20.533844      -558.7543 
  14   2.0000     -20.533237      -558.7378 
  15   2.0000     -20.531243      -558.6835 
  16   2.0000     -20.527998      -558.5952 
  17   2.0000     -20.526199      -558.5463 
  18   2.0000     -20.523099      -558.4619 
  19   2.0000     -20.507545      -558.0387 
  20   2.0000     -11.304326      -307.6063 
  21   2.0000     -11.299450      -307.4737 
  22   2.0000     -11.290035      -307.2175 
  23   2.0000     -11.283175      -307.0308 
  24   2.0000     -11.281571      -306.9872 
  25   2.0000     -11.280046      -306.9457 
  26   2.0000     -11.266946      -306.5892 
  27   2.0000     -11.264378      -306.5193 
  28   2.0000     -11.264356      -306.5187 
  29   2.0000     -11.262408      -306.4657 
  30   2.0000     -11.260691      -306.4190 
  31   2.0000     -11.257142      -306.3224 
  32   2.0000     -11.255914      -306.2890 
  33   2.0000     -11.255635      -306.2814 
  34   2.0000     -11.255404      -306.2751 
  35   2.0000     -11.245779      -306.0132 
  36   2.0000     -11.240454      -305.8683 
  37   2.0000     -11.237044      -305.7755 
  38   2.0000     -11.231076      -305.6131 
  39   2.0000     -11.228338      -305.5386 
  40   2.0000      -1.396526       -38.0014 
  41   2.0000      -1.393601       -37.9218 
  42   2.0000      -1.385629       -37.7049 
  43   2.0000      -1.384540       -37.6752 
  44   2.0000      -1.383511       -37.6472 
  45   2.0000      -1.380864       -37.5752 
  46   2.0000      -1.374999       -37.4156 
  47   2.0000      -1.373787       -37.3827 
  48   2.0000      -1.371007       -37.3070 
  49   2.0000      -1.361410       -37.0459 
  50   2.0000      -1.351757       -36.7832 
  51   2.0000      -1.351583       -36.7784 
  52   2.0000      -1.348179       -36.6858 
  53   2.0000      -1.343120       -36.5481 
  54   2.0000      -1.330125       -36.1945 
  55   2.0000      -1.329533       -36.1784 
  56   2.0000      -1.322608       -35.9900 
  57   2.0000      -1.319880       -35.9158 
  58   2.0000      -1.319600       -35.9081 
  59   2.0000      -1.310304       -35.6552 
  60   2.0000      -0.967320       -26.3221 
  61   2.0000      -0.948192       -25.8016 
  62   2.0000      -0.943359       -25.6701 
  63   2.0000      -0.937485       -25.5103 
  64   2.0000      -0.934267       -25.4227 
  65   2.0000      -0.928639       -25.2695 
  66   2.0000      -0.927635       -25.2422 
  67   2.0000      -0.924688       -25.1620 
  68   2.0000      -0.923612       -25.1328 
  69   2.0000      -0.923554       -25.1312 
  70   2.0000      -0.920378       -25.0448 
  71   2.0000      -0.920352       -25.0440 
  72   2.0000      -0.918096       -24.9827 
  73   2.0000      -0.911648       -24.8072 
  74   2.0000      -0.906895       -24.6779 
  75   2.0000      -0.899612       -24.4797 
  76   2.0000      -0.894247       -24.3337 
  77   2.0000      -0.890914       -24.2430 
  78   2.0000      -0.887277       -24.1440 
  79   2.0000      -0.877106       -23.8673 
  80   2.0000      -0.736891       -20.0518 
  81   2.0000      -0.730438       -19.8762 
  82   2.0000      -0.716502       -19.4970 
  83   2.0000      -0.713935       -19.4272 
  84   2.0000      -0.713749       -19.4221 
  85   2.0000      -0.711653       -19.3651 
  86   2.0000      -0.710597       -19.3363 
  87   2.0000      -0.701791       -19.0967 
  88   2.0000      -0.699125       -19.0242 
  89   2.0000      -0.696831       -18.9617 
  90   2.0000      -0.691121       -18.8064 
  91   2.0000      -0.687907       -18.7189 
  92   2.0000      -0.680436       -18.5156 
  93   2.0000      -0.675865       -18.3912 
  94   2.0000      -0.675267       -18.3750 
  95   2.0000      -0.668974       -18.2037 
  96   2.0000      -0.664505       -18.0821 
  97   2.0000      -0.661956       -18.0127 
  98   2.0000      -0.659938       -17.9578 
  99   2.0000      -0.659367       -17.9423 
 100   2.0000      -0.648172       -17.6377 
 101   2.0000      -0.643636       -17.5142 
 102   2.0000      -0.640848       -17.4384 
 103   2.0000      -0.640272       -17.4227 
 104   2.0000      -0.638861       -17.3843 
 105   2.0000      -0.636048       -17.3077 
 106   2.0000      -0.634029       -17.2528 
 107   2.0000      -0.629678       -17.1344 
 108   2.0000      -0.628469       -17.1015 
 109   2.0000      -0.626179       -17.0392 
 110   2.0000      -0.624686       -16.9986 
 111   2.0000      -0.621903       -16.9228 
 112   2.0000      -0.621263       -16.9054 
 113   2.0000      -0.617216       -16.7953 
 114   2.0000      -0.616681       -16.7808 
 115   2.0000      -0.613639       -16.6980 
 116   2.0000      -0.612763       -16.6741 
 117   2.0000      -0.611753       -16.6466 
 118   2.0000      -0.610176       -16.6037 
 119   2.0000      -0.606471       -16.5029 
 120   2.0000      -0.605980       -16.4896 
 121   2.0000      -0.605411       -16.4741 
 122   2.0000      -0.603776       -16.4296 
 123   2.0000      -0.602493       -16.3947 
 124   2.0000      -0.600437       -16.3387 
 125   2.0000      -0.596928       -16.2432 
 126   2.0000      -0.594797       -16.1852 
 127   2.0000      -0.593315       -16.1449 
 128   2.0000      -0.593196       -16.1417 
 129   2.0000      -0.589303       -16.0357 
 130   2.0000      -0.583204       -15.8698 
 131   2.0000      -0.581650       -15.8275 
 132   2.0000      -0.580169       -15.7872 
 133   2.0000      -0.575238       -15.6530 
 134   2.0000      -0.570176       -15.5153 
 135   2.0000      -0.569549       -15.4982 
 136   2.0000      -0.568999       -15.4832 
 137   2.0000      -0.565677       -15.3929 
 138   2.0000      -0.554201       -15.0806 
 139   2.0000      -0.549234       -14.9454 
 140   2.0000      -0.540346       -14.7036 
 141   2.0000      -0.533700       -14.5227 
 142   2.0000      -0.529483       -14.4080 
 143   2.0000      -0.520663       -14.1680 
 144   2.0000      -0.518066       -14.0973 
 145   2.0000      -0.511902       -13.9296 
 146   2.0000      -0.510102       -13.8806 
 147   2.0000      -0.506774       -13.7900 
 148   2.0000      -0.504580       -13.7303 
 149   2.0000      -0.499126       -13.5819 
 150   2.0000      -0.497945       -13.5498 
 151   2.0000      -0.492683       -13.4066 
 152   2.0000      -0.491458       -13.3733 
 153   2.0000      -0.488292       -13.2871 
 154   2.0000      -0.485102       -13.2003 
 155   2.0000      -0.482000       -13.1159 
 156   2.0000      -0.479136       -13.0379 
 157   2.0000      -0.478225       -13.0132 
 158   2.0000      -0.473651       -12.8887 
 159   2.0000      -0.472828       -12.8663 
 160   2.0000      -0.469787       -12.7836 
 161   2.0000      -0.466606       -12.6970 
 162   2.0000      -0.463399       -12.6097 
 163   2.0000      -0.460936       -12.5427 
 164   2.0000      -0.458998       -12.4900 
 165   2.0000      -0.455079       -12.3833 
 166   2.0000      -0.451437       -12.2842 
 167   2.0000      -0.447893       -12.1878 
 168   2.0000      -0.447071       -12.1654 
 169   2.0000      -0.442442       -12.0395 
 170   2.0000      -0.437099       -11.8941 
 171   2.0000      -0.434397       -11.8205 
 172   2.0000      -0.432877       -11.7792 
 173   2.0000      -0.430382       -11.7113 
 174   2.0000      -0.428639       -11.6639 
 175   2.0000      -0.425474       -11.5777 
 176   2.0000      -0.420265       -11.4360 
 177   2.0000      -0.419692       -11.4204 
 178   2.0000      -0.414097       -11.2681 
 179   2.0000      -0.399825       -10.8798 
 180   0.0000       0.092725         2.5232 
 181   0.0000       0.104518         2.8441 
 182   0.0000       0.109010         2.9663 
 183   0.0000       0.111304         3.0287 
 184   0.0000       0.117264         3.1909 
 185   0.0000       0.122336         3.3289 
 186   0.0000       0.129559         3.5255 
 187   0.0000       0.135004         3.6736 
 188   0.0000       0.136433         3.7125 
 189   0.0000       0.141768         3.8577 
 190   0.0000       0.144720         3.9380 
 191   0.0000       0.152701         4.1552 
 192   0.0000       0.155300         4.2259 
 193   0.0000       0.157349         4.2817 
 194   0.0000       0.161083         4.3833 
 195   0.0000       0.161698         4.4000 
 196   0.0000       0.168510         4.5854 
 197   0.0000       0.171119         4.6564 
 198   0.0000       0.172535         4.6949 
 199   0.0000       0.176114         4.7923 
 200   0.0000       0.178983         4.8704 
 201   0.0000       0.182943         4.9781 
 202   0.0000       0.183882         5.0037 
 203   0.0000       0.187414         5.0998 
 204   0.0000       0.188375         5.1260 
 205   0.0000       0.194014         5.2794 
 206   0.0000       0.195157         5.3105 
 207   0.0000       0.196747         5.3537 
 208   0.0000       0.198134         5.3915 
 209   0.0000       0.200415         5.4536 
 210   0.0000       0.202806         5.5186 
 211   0.0000       0.204662         5.5691 
 212   0.0000       0.205415         5.5896 
 213   0.0000       0.206765         5.6264 
 214   0.0000       0.208430         5.6717 
 215   0.0000       0.212497         5.7823 
 216   0.0000       0.214770         5.8442 
 217   0.0000       0.216532         5.8921 
 218   0.0000       0.217236         5.9113 
 219   0.0000       0.218751         5.9525 
 220   0.0000       0.220790         6.0080 
 221   0.0000       0.226253         6.1567 
 222   0.0000       0.230133         6.2622 
 223   0.0000       0.231722         6.3055 
 224   0.0000       0.233579         6.3560 
 225   0.0000       0.235891         6.4189 
 226   0.0000       0.237113         6.4522 
 227   0.0000       0.238447         6.4885 
 228   0.0000       0.241806         6.5799 
 229   0.0000       0.243988         6.6392 
 230   0.0000       0.246373         6.7041 
 231   0.0000       0.247221         6.7272 
 232   0.0000       0.248216         6.7543 
 233   0.0000       0.252469         6.8700 
 234   0.0000       0.254630         6.9288 
 235   0.0000       0.255694         6.9578 
 236   0.0000       0.257718         7.0129 
 237   0.0000       0.258925         7.0457 
 238   0.0000       0.262687         7.1481 
 239   0.0000       0.265404         7.2220 
 240   0.0000       0.269027         7.3206 
 241   0.0000       0.270914         7.3719 
 242   0.0000       0.272477         7.4145 
 243   0.0000       0.275426         7.4947 
 244   0.0000       0.279625         7.6090 
 245   0.0000       0.285301         7.7634 
 246   0.0000       0.288859         7.8603 
 247   0.0000       0.291222         7.9246 
 248   0.0000       0.294301         8.0084 
 249   0.0000       0.296167         8.0591 
 250   0.0000       0.301829         8.2132 
 251   0.0000       0.303341         8.2543 
 252   0.0000       0.305606         8.3160 
 253   0.0000       0.306595         8.3429 
 254   0.0000       0.308571         8.3966 
 255   0.0000       0.312204         8.4955 
 256   0.0000       0.314461         8.5569 
 257   0.0000       0.319076         8.6825 
 258   0.0000       0.321692         8.7537 
 259   0.0000       0.324308         8.8249 
 260   0.0000       0.327974         8.9246 
 261   0.0000       0.331506         9.0207 
 262   0.0000       0.333390         9.0720 
 263   0.0000       0.334084         9.0909 
 264   0.0000       0.340688         9.2706 
 265   0.0000       0.341770         9.3000 
 266   0.0000       0.343446         9.3456 
 267   0.0000       0.350536         9.5386 
 268   0.0000       0.353584         9.6215 
 269   0.0000       0.358984         9.7685 
 270   0.0000       0.361041         9.8244 
 271   0.0000       0.362624         9.8675 
 272   0.0000       0.369942        10.0666 
 273   0.0000       0.371482        10.1085 
 274   0.0000       0.372115        10.1258 
 275   0.0000       0.374534        10.1916 
 276   0.0000       0.378530        10.3003 
 277   0.0000       0.380646        10.3579 
 278   0.0000       0.384646        10.4668 
 279   0.0000       0.385297        10.4845 
 280   0.0000       0.386532        10.5181 
 281   0.0000       0.389309        10.5936 
 282   0.0000       0.394239        10.7278 
 283   0.0000       0.395097        10.7511 
 284   0.0000       0.396419        10.7871 
 285   0.0000       0.398950        10.8560 
 286   0.0000       0.399878        10.8812 
 287   0.0000       0.401759        10.9324 
 288   0.0000       0.404631        11.0106 
 289   0.0000       0.406185        11.0529 
 290   0.0000       0.411401        11.1948 
 291   0.0000       0.417171        11.3518 
 292   0.0000       0.419223        11.4076 
 293   0.0000       0.420421        11.4402 
 294   0.0000       0.423666        11.5285 
 295   0.0000       0.427039        11.6203 
 296   0.0000       0.427836        11.6420 
 297   0.0000       0.435603        11.8534 
 298   0.0000       0.440062        11.9747 
 299   0.0000       0.445025        12.1098 
 300   0.0000       0.446733        12.1562 
 301   0.0000       0.449668        12.2361 
 302   0.0000       0.452762        12.3203 
 303   0.0000       0.456078        12.4105 
 304   0.0000       0.458622        12.4797 
 305   0.0000       0.463440        12.6109 
 306   0.0000       0.464618        12.6429 
 307   0.0000       0.475664        12.9435 
 308   0.0000       0.480311        13.0699 
 309   0.0000       0.486718        13.2443 
 310   0.0000       0.489869        13.3300 
 311   0.0000       0.493567        13.4306 
 312   0.0000       0.505939        13.7673 
 313   0.0000       0.507086        13.7985 
 314   0.0000       0.511321        13.9138 
 315   0.0000       0.518778        14.1167 
 316   0.0000       0.521090        14.1796 
 317   0.0000       0.528701        14.3867 
 318   0.0000       0.534009        14.5311 
 319   0.0000       0.534777        14.5520 
 320   0.0000       0.537990        14.6395 
 321   0.0000       0.543273        14.7832 
 322   0.0000       0.545064        14.8319 
 323   0.0000       0.545705        14.8494 
 324   0.0000       0.551281        15.0011 
 325   0.0000       0.553776        15.0690 
 326   0.0000       0.558106        15.1868 
 327   0.0000       0.560290        15.2463 
 328   0.0000       0.561083        15.2678 
 329   0.0000       0.563278        15.3276 
 330   0.0000       0.565633        15.3917 
 331   0.0000       0.567414        15.4401 
 332   0.0000       0.570961        15.5366 
 333   0.0000       0.574302        15.6276 
 334   0.0000       0.575802        15.6684 
 335   0.0000       0.577676        15.7194 
 336   0.0000       0.578630        15.7453 
 337   0.0000       0.581492        15.8232 
 338   0.0000       0.583238        15.8707 
 339   0.0000       0.584809        15.9135 
 340   0.0000       0.586510        15.9598 
 341   0.0000       0.587365        15.9830 
 342   0.0000       0.589771        16.0485 
 343   0.0000       0.592340        16.1184 
 344   0.0000       0.594693        16.1824 
 345   0.0000       0.595587        16.2067 
 346   0.0000       0.595783        16.2121 
 347   0.0000       0.598673        16.2907 
 348   0.0000       0.599352        16.3092 
 349   0.0000       0.601706        16.3732 
 350   0.0000       0.604447        16.4478 
 351   0.0000       0.606069        16.4920 
 352   0.0000       0.607360        16.5271 
 353   0.0000       0.609910        16.5965 
 354   0.0000       0.610730        16.6188 
 355   0.0000       0.613566        16.6960 
 356   0.0000       0.616167        16.7668 
[...]
  VA   - Mayer's total valence
  BVA  - Mayer's bonded valence
  FA   - Mayer's free valence

  ATOM       NA         ZA         QA         VA         BVA        FA
  0 O      8.4692     8.0000    -0.4692     1.9329     1.9329    -0.0000
  1 H      0.7109     1.0000     0.2891     0.9681     0.9681    -0.0000
  2 C      6.0472     6.0000    -0.0472     3.9111     3.9111    -0.0000
  3 H      0.9309     1.0000     0.0691     0.9758     0.9758    -0.0000
  4 H      0.9202     1.0000     0.0798     0.9785     0.9785     0.0000
  5 H      0.9222     1.0000     0.0778     0.9779     0.9779     0.0000
  6 O      8.5562     8.0000    -0.5562     1.8657     1.8657    -0.0000
  7 H      0.6864     1.0000     0.3136     0.9970     0.9970    -0.0000
  8 C      6.1754     6.0000    -0.1754     3.8396     3.8396     0.0000
  9 H      0.8744     1.0000     0.1256     0.9512     0.9512     0.0000
 10 H      0.8800     1.0000     0.1200     0.9866     0.9866     0.0000
 11 H      0.8658     1.0000     0.1342     0.9445     0.9445     0.0000
 12 O      8.4626     8.0000    -0.4626     1.9279     1.9279    -0.0000
 13 H      0.7346     1.0000     0.2654     0.9899     0.9899     0.0000
 14 C      6.0814     6.0000    -0.0814     3.8828     3.8828     0.0000
 15 H      0.9186     1.0000     0.0814     0.9919     0.9919     0.0000
 16 H      0.9278     1.0000     0.0722     0.9606     0.9606     0.0000
 17 H      0.8853     1.0000     0.1147     0.9771     0.9771     0.0000
 18 O      8.3711     8.0000    -0.3711     2.0032     2.0032    -0.0000
 19 H      0.7789     1.0000     0.2211     1.0151     1.0151    -0.0000
 20 C      6.0112     6.0000    -0.0112     3.9535     3.9535    -0.0000
 21 H      0.9564     1.0000     0.0436     0.9552     0.9552    -0.0000
 22 H      0.9538     1.0000     0.0462     0.9824     0.9824    -0.0000
 23 H      0.9240     1.0000     0.0760     0.9507     0.9507    -0.0000
 24 O      8.4651     8.0000    -0.4651     1.9400     1.9400    -0.0000
 25 H      0.7332     1.0000     0.2668     0.9945     0.9945    -0.0000
 26 C      6.0550     6.0000    -0.0550     3.9136     3.9136    -0.0000
 27 H      0.9415     1.0000     0.0585     0.9706     0.9706    -0.0000
 28 H      0.8906     1.0000     0.1094     0.9439     0.9439    -0.0000
 29 H      0.9215     1.0000     0.0785     0.9767     0.9767    -0.0000
 30 O      8.4450     8.0000    -0.4450     1.9627     1.9627    -0.0000
 31 H      0.7088     1.0000     0.2912     0.9826     0.9826    -0.0000
 32 C      6.0592     6.0000    -0.0592     3.9173     3.9173    -0.0000
 33 H      0.9024     1.0000     0.0976     0.9695     0.9695     0.0000
 34 H      0.9265     1.0000     0.0735     0.9662     0.9662    -0.0000
 35 H      0.9331     1.0000     0.0669     0.9695     0.9695     0.0000
 36 O      8.4281     8.0000    -0.4281     1.9710     1.9710    -0.0000
 37 H      0.7770     1.0000     0.2230     1.0071     1.0071    -0.0000
 38 C      6.0587     6.0000    -0.0587     3.8648     3.8648    -0.0000
 39 H      0.8673     1.0000     0.1327     0.9869     0.9869    -0.0000
 40 H      0.8962     1.0000     0.1038     0.9807     0.9807    -0.0000
 41 H      0.9566     1.0000     0.0434     0.9743     0.9743    -0.0000
 42 O      8.4472     8.0000    -0.4472     1.9607     1.9607    -0.0000
 43 H      0.7689     1.0000     0.2311     1.0130     1.0130    -0.0000
 44 C      6.0124     6.0000    -0.0124     3.8948     3.8948    -0.0000
 45 H      0.9121     1.0000     0.0879     0.9741     0.9741    -0.0000
 46 H      0.9121     1.0000     0.0879     0.9692     0.9692    -0.0000
 47 H      0.9630     1.0000     0.0370     0.9783     0.9783     0.0000
 48 O      8.4599     8.0000    -0.4599     1.9265     1.9265    -0.0000
 49 H      0.7240     1.0000     0.2760     0.9863     0.9863    -0.0000
 50 C      6.0386     6.0000    -0.0386     3.9148     3.9148    -0.0000
 51 H      0.9182     1.0000     0.0818     0.9724     0.9724    -0.0000
 52 H      0.9536     1.0000     0.0464     0.9699     0.9699    -0.0000
 53 H      0.9079     1.0000     0.0921     0.9651     0.9651    -0.0000
 54 O      8.4413     8.0000    -0.4413     1.9544     1.9544    -0.0000
 55 H      0.7463     1.0000     0.2537     1.0143     1.0143    -0.0000
 56 C      6.0887     6.0000    -0.0887     3.9290     3.9290    -0.0000
 57 H      0.9052     1.0000     0.0948     0.9729     0.9729    -0.0000
 58 H      0.9321     1.0000     0.0679     0.9493     0.9493    -0.0000
 59 H      0.9029     1.0000     0.0971     0.9796     0.9796    -0.0000
 60 O      8.4113     8.0000    -0.4113     1.9671     1.9671    -0.0000
 61 H      0.7921     1.0000     0.2079     1.0334     1.0334     0.0000
 62 C      6.0142     6.0000    -0.0142     3.9010     3.9010     0.0000
 63 H      0.9144     1.0000     0.0856     0.9746     0.9746     0.0000
 64 H      0.9126     1.0000     0.0874     0.9700     0.9700    -0.0000
 65 H      0.9612     1.0000     0.0388     0.9735     0.9735     0.0000
 66 O      8.3869     8.0000    -0.3869     1.9859     1.9859    -0.0000
 67 H      0.7907     1.0000     0.2093     1.0213     1.0213     0.0000
 68 C      6.0288     6.0000    -0.0288     3.9197     3.9197    -0.0000
 69 H      0.9530     1.0000     0.0470     0.9747     0.9747    -0.0000
 70 H      0.9365     1.0000     0.0635     0.9798     0.9798     0.0000
 71 H      0.9060     1.0000     0.0940     0.9523     0.9523    -0.0000
 72 O      8.4923     8.0000    -0.4923     1.9308     1.9308    -0.0000
 73 H      0.7192     1.0000     0.2808     0.9918     0.9918    -0.0000
 74 C      6.0936     6.0000    -0.0936     3.8624     3.8624    -0.0000
 75 H      0.8629     1.0000     0.1371     0.9707     0.9707    -0.0000
 76 H      0.8943     1.0000     0.1057     0.9786     0.9786    -0.0000
 77 H      0.9278     1.0000     0.0722     0.9582     0.9582     0.0000
 78 O      8.4261     8.0000    -0.4261     1.9577     1.9577    -0.0000
 79 H      0.7423     1.0000     0.2577     1.0008     1.0008    -0.0000
 80 C      6.0487     6.0000    -0.0487     3.9177     3.9177    -0.0000
 81 H      0.8873     1.0000     0.1127     0.9648     0.9648     0.0000
 82 H      0.9799     1.0000     0.0201     0.9579     0.9579    -0.0000
 83 H      0.9411     1.0000     0.0589     1.0002     1.0002     0.0000
 84 O      8.3796     8.0000    -0.3796     1.9859     1.9859    -0.0000
 85 H      0.7857     1.0000     0.2143     1.0286     1.0286    -0.0000
 86 C      6.0275     6.0000    -0.0275     3.9335     3.9335    -0.0000
 87 H      0.8995     1.0000     0.1005     0.9633     0.9633    -0.0000
 88 H      0.9811     1.0000     0.0189     0.9669     0.9669    -0.0000
 89 H      0.9317     1.0000     0.0683     0.9791     0.9791    -0.0000
 90 O      8.4217     8.0000    -0.4217     1.9453     1.9453    -0.0000
 91 H      0.7664     1.0000     0.2336     1.0054     1.0054    -0.0000
 92 C      6.0078     6.0000    -0.0078     3.8933     3.8933    -0.0000
 93 H      0.9214     1.0000     0.0786     0.9745     0.9745     0.0000
 94 H      0.9164     1.0000     0.0836     0.9672     0.9672    -0.0000
 95 H      0.9493     1.0000     0.0507     0.9826     0.9826    -0.0000
 96 O      8.4608     8.0000    -0.4608     1.9313     1.9313    -0.0000
 97 H      0.7188     1.0000     0.2812     1.0036     1.0036    -0.0000
 98 C      6.0708     6.0000    -0.0708     3.9184     3.9184    -0.0000
 99 H      0.8989     1.0000     0.1011     0.9674     0.9674     0.0000
100 H      0.9433     1.0000     0.0567     0.9516     0.9516     0.0000
101 H      0.9300     1.0000     0.0700     0.9714     0.9714    -0.0000
102 O      8.4534     8.0000    -0.4534     1.9565     1.9565    -0.0000
103 H      0.7174     1.0000     0.2826     0.9780     0.9780    -0.0000
104 C      6.0613     6.0000    -0.0613     3.9012     3.9012    -0.0000
105 H      0.9083     1.0000     0.0917     0.9616     0.9616    -0.0000
106 H      0.9293     1.0000     0.0707     0.9681     0.9681    -0.0000
107 H      0.9007     1.0000     0.0993     0.9763     0.9763    -0.0000
108 O      8.4160     8.0000    -0.4160     2.0006     2.0006    -0.0000
109 H      0.7513     1.0000     0.2487     0.9981     0.9981    -0.0000
110 C      6.0401     6.0000    -0.0401     3.9144     3.9144    -0.0000
111 H      0.9283     1.0000     0.0717     0.9666     0.9666    -0.0000
112 H      0.9062     1.0000     0.0938     0.9646     0.9646    -0.0000
113 H      0.9252     1.0000     0.0748     0.9766     0.9766    -0.0000
114 O      8.4369     8.0000    -0.4369     1.9568     1.9568    -0.0000
115 H      0.7594     1.0000     0.2406     1.0036     1.0036    -0.0000
116 C      6.0798     6.0000    -0.0798     3.8890     3.8890    -0.0000
117 H      0.8943     1.0000     0.1057     0.9692     0.9692    -0.0000
118 H      0.9160     1.0000     0.0840     0.9797     0.9797    -0.0000
119 H      0.8977     1.0000     0.1023     0.9633     0.9633    -0.0000

  Mayer bond orders larger than 0.100000
B(  0-O ,  1-H ) :   0.9269 B(  0-O ,  2-C ) :   0.9653 B(  2-C ,  3-H ) :   0.9766 
B(  2-C ,  4-H ) :   0.9784 B(  2-C ,  5-H ) :   0.9807 B(  6-O ,  7-H ) :   0.8701 
B(  6-O ,  8-C ) :   0.9297 B(  8-C ,  9-H ) :   0.9710 B(  8-C , 10-H ) :   0.9692 
B(  8-C , 11-H ) :   0.9639 B( 12-O , 13-H ) :   0.9339 B( 12-O , 14-C ) :   0.9573 
B( 14-C , 15-H ) :   0.9624 B( 14-C , 16-H ) :   0.9691 B( 14-C , 17-H ) :   0.9939 
B( 18-O , 19-H ) :   0.9951 B( 18-O , 20-C ) :   1.0064 B( 20-C , 21-H ) :   0.9647 
B( 20-C , 22-H ) :   0.9989 B( 20-C , 23-H ) :   0.9687 B( 24-O , 25-H ) :   0.9518 
B( 24-O , 26-C ) :   0.9735 B( 26-C , 27-H ) :   0.9783 B( 26-C , 28-H ) :   0.9690 
B( 26-C , 29-H ) :   0.9830 B( 30-O , 31-H ) :   0.8991 B( 30-O , 32-C ) :   0.9659 
B( 32-C , 33-H ) :   0.9762 B( 32-C , 34-H ) :   0.9796 B( 32-C , 35-H ) :   0.9800 
B( 36-O , 37-H ) :   0.9794 B( 36-O , 38-C ) :   0.9273 B( 38-C , 39-H ) :   0.9619 
B( 38-C , 40-H ) :   0.9925 B( 38-C , 41-H ) :   0.9797 B( 42-O , 43-H ) :   0.9867 
B( 42-O , 44-C ) :   0.9611 B( 44-C , 45-H ) :   0.9752 B( 44-C , 46-H ) :   0.9646 
B( 44-C , 47-H ) :   0.9848 B( 48-O , 49-H ) :   0.9285 B( 48-O , 50-C ) :   0.9713 
B( 50-C , 51-H ) :   0.9806 B( 50-C , 52-H ) :   0.9743 B( 50-C , 53-H ) :   0.9805 
B( 54-O , 55-H ) :   0.9599 B( 54-O , 56-C ) :   0.9808 B( 56-C , 57-H ) :   0.9813 
B( 56-C , 58-H ) :   0.9719 B( 56-C , 59-H ) :   0.9864 B( 60-O , 61-H ) :   1.0133 
B( 60-O , 62-C ) :   0.9559 B( 62-C , 63-H ) :   0.9740 B( 62-C , 64-H ) :   0.9668 
B( 62-C , 65-H ) :   0.9846 B( 66-O , 67-H ) :   1.0051 B( 66-O , 68-C ) :   0.9772 
B( 68-C , 69-H ) :   0.9806 B( 68-C , 70-H ) :   0.9955 B( 68-C , 71-H ) :   0.9553 
B( 72-O , 73-H ) :   0.9515 B( 72-O , 74-C ) :   0.9257 B( 74-C , 75-H ) :   0.9768 
B( 74-C , 76-H ) :   0.9790 B( 74-C , 77-H ) :   0.9737 B( 78-O , 79-H ) :   0.9451 
B( 78-O , 80-C ) :   0.9991 B( 80-C , 81-H ) :   0.9764 B( 80-C , 82-H ) :   0.9634 
B( 80-C , 83-H ) :   0.9783 B( 84-O , 85-H ) :   1.0070 B( 84-O , 86-C ) :   0.9908 
B( 86-C , 87-H ) :   0.9710 B( 86-C , 88-H ) :   0.9680 B( 86-C , 89-H ) :   0.9875 
B( 90-O , 91-H ) :   0.9850 B( 90-O , 92-C ) :   0.9341 B( 92-C , 93-H ) :   0.9740 
B( 92-C , 94-H ) :   0.9725 B( 92-C , 95-H ) :   0.9939 B( 96-O , 97-H ) :   0.9248 
B( 96-O , 98-C ) :   0.9825 B( 98-C , 99-H ) :   0.9768 B( 98-C ,100-H ) :   0.9673 
B( 98-C ,101-H ) :   0.9916 B(102-O ,103-H ) :   0.9358 B(102-O ,104-C ) :   0.9490 
B(104-C ,105-H ) :   0.9726 B(104-C ,106-H ) :   0.9842 B(104-C ,107-H ) :   0.9849 
B(108-O ,109-H ) :   0.9732 B(108-O ,110-C ) :   0.9617 B(110-C ,111-H ) :   0.9710 
B(110-C ,112-H ) :   0.9757 B(110-C ,113-H ) :   0.9905 B(114-O ,115-H ) :   0.9725 
B(114-O ,116-C ) :   0.9401 B(116-C ,117-H ) :   0.9689 B(116-C ,118-H ) :   0.9961 
B(116-C ,119-H ) :   0.9731 

-------
TIMINGS
-------

Total SCF time: 0 days 0 hours 18 min 35 sec 

Total time                  ....    1115.904 sec
Sum of individual times     ....    1098.629 sec  ( 98.5%)

Fock matrix formation       ....    1031.683 sec  ( 92.5%)
Diagonalization             ....       9.594 sec  (  0.9%)
Density matrix formation    ....       0.697 sec  (  0.1%)
Population analysis         ....      10.432 sec  (  0.9%)
Initial guess               ....       3.368 sec  (  0.3%)
Orbital Transformation      ....       0.000 sec  (  0.0%)
Orbital Orthonormalization  ....       0.000 sec  (  0.0%)
DIIS solution               ....      32.056 sec  (  2.9%)
SOSCF solution              ....      10.148 sec  (  0.9%)


           ************************************************************
           *        Program running with 24 parallel MPI-processes    *
           *              working on a common directory               *
           ************************************************************

------------------------------------------------------------------------------
                                ORCA  MP2 
------------------------------------------------------------------------------

Freezing NCore=80 chemical core electrons

-------------
RI-MP2 ENERGY
-------------
Dimension of the basis                    ... 2320
Memory devoted to MP2                     ... 8000 MB   
Data format for buffers                   ... DOUBLE
Compression type for matrix containers    ... UNCOMPRESSED
Overall scaling of the MP2 energy         ...   1.000e+00
Calculating two index integrals           ... done (    0.180 sec)
Cholesky decomposition of V**-1           ... done (    4.742 sec)

-----------------
RI-TRANSFORMATION (AUX index driven)
-----------------

Dimension of the orbital-basis         ... 2320
Dimension of the aux-basis             ... 5640
Transformation of internal/external MOs...   40- 179 to  180-2319
Number Format for Storage              ... Double (8 Byte)
Integral mode                          ... Direct

First Phase: integral generation and transformation of MO indices
  Aux angular momentum 0               ... done (    9.555 sec)
  Aux angular momentum 1               ... done (   20.100 sec)
  Aux angular momentum 2               ... done (   24.813 sec)
  Aux angular momentum 3               ... done (   20.841 sec)
  Aux angular momentum 4               ... done (    5.900 sec)
Closing buffer VIA (12.59 GB; CompressionRatio= 1.00)
  Phase 1 completed in    82.754 sec
Second Phase: sorting and transformation of aux index

IA-Transformation
Memory available                       ... 7330 MB 
Max. # MO pairs treated in a batch     ... 6    
# of internal orbitals                 ... 140
# batches for internal orbitals        ... 1
Closing buffer IAV ( 0.54 GB; CompressionRatio= 1.00)
(ia|v) transformation done in    85.534 sec

  Phase 2 completed in    99.557 sec
RI-Integral transformation completed in   182.317 sec
Opening buffers                              ... done

Starting loop over batches of integrals:

Operator 0  - window                       ... ( 40-179)x(180-2319)
Operator 0  - Memory available             ...  8000 MB
Operator 0  - Memory needed per MO         ...  92.1 MB
Operator 0  - Number of orbitals per batch ... 6
Operator 0  - Number of batches            ... 1

OPERATOR  0   PASS   0:  MOs    40 ...   45 +   46 ...   51 +   52 ...   57 +   58 ...   63
                            +   64 ...   69 +   70 ...   75 +   76 ...   81 +   82 ...   87
                            +   88 ...   93 +   94 ...   99 +  100 ...  105 +  106 ...  111
                            +  112 ...  117 +  118 ...  123 +  124 ...  129 +  130 ...  135
                            +  136 ...  141 +  142 ...  147 +  148 ...  153 +  154 ...  159
                            +  160 ...  165 +  166 ...  171 +  172 ...  177 +  178 ...  179
  Reading integrals       ... ok
  Internal MO  42
  Internal MO  45
Time spent in pair loops =   109.917 sec
Deleting buffer (Ka|jb)[aa] ...done

-----------------------------------------------
 RI-MP2 CORRELATION ENERGY:     -8.668961589 Eh
-----------------------------------------------


-------
TIMINGS
-------

Total time                : 4463.583 sec
Integral trafo            :  182.329 sec (  4.1%)
I/O of integrals          :    0.514 sec (  0.0%)
K(i,j) Operators          :  108.581 sec (  2.4%)
T(i,j) pair energies      :    0.578 sec (  0.0%)
V-calculation             :    0.180 sec (  0.0%)
V**(-1/2)                 :    4.742 sec (  0.1%)
Gamma(ia|P)               :    0.000 sec (  0.0%)
Gamma-Trafo               :    0.000 sec (  0.0%)
D(virtual)                :    0.000 sec (  0.0%)
D(internal)               :    0.000 sec (  0.0%)
W(virtual)                :    0.000 sec (  0.0%)
W(internal)               :    0.000 sec (  0.0%)
L(virtual)                :    0.000 sec (  0.0%)
L(internal)               :    0.000 sec (  0.0%)
G(D)                      :    0.000 sec (  0.0%)
G(Z)                      :    0.000 sec (  0.0%)
Z-Vector Solution         :    0.000 sec (  0.0%)
3-Index Derivative        :    0.000 sec (  0.0%)
2-Index Derivative        :    0.000 sec (  0.0%)
Separable Gradient        :    0.000 sec (  0.0%)


---------------------------------------
MP2 TOTAL ENERGY:    -2310.357673200 Eh
---------------------------------------

-------------------------   --------------------
FINAL SINGLE POINT ENERGY     -2310.357673199821
-------------------------   --------------------


                            ***************************************
                            *     ORCA property calculations      *
                            ***************************************


  WARNING: The energy has been calculated at the MP2 level but the densities
           used in the property calculations are still SCF densities
           MP2 response densities have not been calculated 
           use %mp2 Density relaxed end
           or  %mp2 Density unrelaxed end

                                    ---------------------
                                    Active property flags
                                    ---------------------
   (+) Dipole Moment


------------------------------------------------------------------------------
                       ORCA ELECTRIC PROPERTIES CALCULATION
------------------------------------------------------------------------------

Dipole Moment Calculation                       ... on
Quadrupole Moment Calculation                   ... off
Polarizability Calculation                      ... off
GBWName                                         ... input.gbw
Electron density file                           ... input.scfp
The origin for moment calculation is the CENTER OF MASS  = ( 2.235223, -0.658776 -1.116633)

-------------
DIPOLE MOMENT
-------------
                                X             Y             Z
Electronic contribution:     -3.45021       4.94293      -1.54414
Nuclear contribution   :      4.46199      -9.51896       2.56555
                        -----------------------------------------
Total Dipole Moment    :      1.01178      -4.57603       1.02141
                        -----------------------------------------
Magnitude (a.u.)       :      4.79657
Magnitude (Debye)      :     12.19191



--------------------
Rotational spectrum 
--------------------
 
Rotational constants in cm-1:     0.001526     0.001278     0.001143 
Rotational constants in MHz :    45.761137    38.301959    34.263271 

 Dipole components along the rotational axes: 
x,y,z [a.u.] :     1.351153    -4.592949     0.293712 
x,y,z [Debye]:     3.434358   -11.674350     0.746557 

 

Timings for individual modules:

Sum of individual times         ...     5593.960 sec (=  93.233 min)
GTO integral calculation        ...        8.267 sec (=   0.138 min)   0.1 %
SCF iterations                  ...     1118.567 sec (=  18.643 min)  20.0 %
MP2 module                      ...     4467.126 sec (=  74.452 min)  79.9 %
                             ****ORCA TERMINATED NORMALLY****
TOTAL RUN TIME: 0 days 1 hours 33 minutes 17 seconds 453 msec
