
                                 *****************
                                 * O   R   C   A *
                                 *****************

           --- An Ab Initio, DFT and Semiempirical electronic structure package ---

                  #######################################################
                  #                        -***-                        #
                  #          Department of theory and spectroscopy      #
                  #               Directorship: Frank Neese             #
                  #        Max Planck Institute fuer Kohlenforschung    #
                  #                Kaiser Wilhelm Platz 1               #
                  #                 D-45470 Muelheim/Ruhr               #
                  #                      Germany                        #
                  #                                                     #
                  #                  All rights reserved                #
                  #                        -***-                        #
                  #######################################################


                         Program Version 4.2.0 -  RELEASE  -


 With contributions from (in alphabetic order):
   Daniel Aravena         : Magnetic Suceptibility
   Michael Atanasov       : Ab Initio Ligand Field Theory (pilot matlab implementation)
   Alexander A. Auer      : GIAO ZORA, VPT2
   Ute Becker             : Parallelization
   Giovanni Bistoni       : ED, misc. LED, open-shell LED, HFLED
   Martin Brehm           : Molecular dynamics
   Dmytro Bykov           : SCF Hessian
   Vijay G. Chilkuri      : MRCI spin determinant printing, contributions to CSF-ICE
   Dipayan Datta          : RHF DLPNO-CCSD density
   Achintya Kumar Dutta   : EOM-CC, STEOM-CC
   Dmitry Ganyushin       : Spin-Orbit,Spin-Spin,Magnetic field MRCI
   Miquel Garcia          : C-PCM Hessian, Gaussian charge scheme
   Yang Guo               : DLPNO-NEVPT2, CIM, IAO-localization
   Andreas Hansen         : Spin unrestricted coupled pair/coupled cluster methods
   Benjamin Helmich-Paris : CASSCF linear response (MC-RPA)
   Lee Huntington         : MR-EOM, pCC
   Robert Izsak           : Overlap fitted RIJCOSX, COSX-SCS-MP3, EOM
   Christian Kollmar      : KDIIS, OOCD, Brueckner-CCSD(T), CCSD density
   Simone Kossmann        : Meta GGA functionals, TD-DFT gradient, OOMP2, MP2 Hessian
   Martin Krupicka        : AUTO-CI
   Lucas Lang             : DCDCAS
   Dagmar Lenk            : GEPOL surface, SMD
   Dimitrios Liakos       : Extrapolation schemes; Compound Job, initial MDCI parallelization
   Dimitrios Manganas     : Further ROCIS development; embedding schemes
   Dimitrios Pantazis     : SARC Basis sets
   Taras Petrenko         : DFT Hessian,TD-DFT gradient, ASA, ECA, R-Raman, ABS, FL, XAS/XES, NRVS
   Peter Pinski           : DLPNO-MP2, DLPNO-MP2 Gradient
   Christoph Reimann      : Effective Core Potentials
   Marius Retegan         : Local ZFS, SOC
   Christoph Riplinger    : Optimizer, TS searches, QM/MM, DLPNO-CCSD(T), (RO)-DLPNO pert. Triples
   Tobias Risthaus        : Range-separated hybrids, TD-DFT gradient, RPA, STAB
   Michael Roemelt        : Original ROCIS implementation
   Masaaki Saitow         : Open-shell DLPNO-CCSD energy and density
   Barbara Sandhoefer     : DKH picture change effects
   Avijit Sen             : IP-ROCIS
   Kantharuban Sivalingam : CASSCF convergence, NEVPT2, FIC-MRCI
   Bernardo de Souza      : ESD, SOC TD-DFT
   Georgi Stoychev        : AutoAux, RI-MP2 NMR
   Willem Van den Heuvel  : Paramagnetic NMR
   Boris Wezisla          : Elementary symmetry handling
   Frank Wennmohs         : Technical directorship


 We gratefully acknowledge several colleagues who have allowed us to
 interface, adapt or use parts of their codes:
   Stefan Grimme, W. Hujo, H. Kruse,             : VdW corrections, initial TS optimization,
                  C. Bannwarth                     DFT functionals, gCP, sTDA/sTD-DF
   Ed Valeev, F. Pavosevic, A. Kumar             : LibInt (2-el integral package), F12 methods
   Garnet Chan, S. Sharma, J. Yang, R. Olivares  : DMRG
   Ulf Ekstrom                                   : XCFun DFT Library
   Mihaly Kallay                                 : mrcc  (arbitrary order and MRCC methods)
   Andreas Klamt, Michael Diedenhofen            : otool_cosmo (COSMO solvation model)
   Jiri Pittner, Ondrej Demel                    : Mk-CCSD
   Frank Weinhold                                : gennbo (NPA and NBO analysis)
   Christopher J. Cramer and Donald G. Truhlar   : smd solvation model
   Lars Goerigk                                  : TD-DFT with DH, B97 family of functionals
   V. Asgeirsson, H. Jonsson                     : NEB implementation
   FAccTs GmbH                                   : IRC, NEB, NEB-TS, Multilevel, MM, QM/MM, CI optimization
   S Lehtola, MJT Oliveira, MAL Marques          : LibXC Library


 Your calculation uses the libint2 library for the computation of 2-el integrals
 For citations please refer to: http://libint.valeyev.net

 Your ORCA version has been built with support for libXC version: 4.2.3
 For citations please refer to: https://tddft.org/programs/libxc/

 This ORCA versions uses:
   CBLAS   interface :  Fast vector & matrix operations
   LAPACKE interface :  Fast linear algebra routines
   SCALAPACK package :  Parallel linear algebra routines


----- Orbital basis set information -----
Your calculation utilizes the basis: cc-pVTZ 
       H, B-Ne : Obtained from the ccRepo (grant-hill.group.shef.ac.uk/ccrepo) Feb. 2017
                 T. H. Dunning, Jr., J. Chem. Phys. 90, 1007 (1989)
            He : Obtained from the ccRepo (grant-hill.group.shef.ac.uk/ccrepo) Feb. 2017
                 D. E. Woon, T. H. Dunning, Jr., J. Chem. Phys. 100, 2975 (1994)
  Li-Be, Na-Mg : Obtained from the ccRepo (grant-hill.group.shef.ac.uk/ccrepo) Feb. 2017
                 B. P. Prascher, D. E. Woon, K. A. Peterson, T. H. Dunning, Jr., A. K. Wilson, Theor. Chem. Acc. 128, 69 (2011)
         Al-Ar : Obtained from the ccRepo (grant-hill.group.shef.ac.uk/ccrepo) Feb. 2017
                 D. E. Woon, T. H. Dunning, Jr., J. Chem. Phys. 98, 1358 (1993)
            Ca : Obtained from the Peterson Research Group Website (tyr0.chem.wsu.edu/~kipeters) Feb. 2017
                 J. Koput, K. A. Peterson, J. Phys. Chem. 106, 9595 (2002)
         Sc-Zn : Obtained from the ccRepo (grant-hill.group.shef.ac.uk/ccrepo) Feb. 2017
                 N. B. Balabanov, K. A. Peterson, J. Chem. Phys. 123, 064107 (2005)
                 N. B. Balabanov, K. A. Peterson, J. Chem. Phys. 125, 074110 (2006)
         Ga-Kr : Obtained from the ccRepo (grant-hill.group.shef.ac.uk/ccrepo) Feb. 2017
                 A. K. Wilson, D. E. Woon, K. A. Peterson, T. H. Dunning, Jr., J. Chem. Phys. 110, 7667 (1999)
             Y : Obtained from the ccRepo (grant-hill.group.shef.ac.uk/ccrepo) Feb. 2017
                 K. A. Peterson, D. Figgen, M. Dolg, H. Stoll, J. Chem. Phys. 126, 124101 (2007)
        Ag, Au : Obtained from the Peterson Research Group Website (tyr0.chem.wsu.edu/~kipeters) Feb. 2017
                 K. A. Peterson, C. Puzzarini, Theor. Chem. Acc. 114, 283 (2005)

----- AuxC basis set information -----
Your calculation utilizes the auxiliary basis: cc-pVTZ/C 
  Obtained from the EMSL Basis Set Exchange (bse.pnl.gov) Feb. 2017
  H-He, B-F, Al-Ar, Ga-Kr : F. Weigend, A. Kohn, C. Hattig, J. Chem. Phys. 116, 3175 (2002)
             Li-Be, Na-Mg : C. Haettig, Phys. Chem. Chem. Phys. 7, 59 (2005)
                       Ne : C. Haettig, Phys. Chem. Chem. Phys. 7, 59 (2005)
                            F. Weigend, A. Kohn, C. Hattig, J. Chem. Phys. 116, 3175 (2002)
                    Sc-Zn : J. G. Hill, J. A. Platts, J. Chem. Phys. 128, 044104 (2008)

================================================================================
                                        WARNINGS
                       Please study these warnings very carefully!
================================================================================


WARNING: No MP2 level density has been requested!
         To caclulate MP2 level properties use
         %mp2 Density relaxed end
         or
         %mp2 Density unrelaxed end

INFO   : the flag for use of LIBINT has been found!

================================================================================
                                       INPUT FILE
================================================================================
NAME = input.inp
|  1> ! RI-MP2 cc-pVTZ cc-pVTZ/C TightSCF FrozenCore
|  2> 
|  3> %pal nprocs 24 end
|  4> %maxcore 8000
|  5> %scf ConvForced true end
|  6> 
|  7> *xyz  0  1
|  8> O     0.00000     0.00000     0.00000
|  9> H    -0.60718     0.01492     0.74568
| 10> C     0.44737     1.33852    -0.23527
| 11> H     0.27262     1.57616    -1.28030
| 12> H     1.50908     1.41937     0.01395
| 13> H    -0.20264     2.00045     0.36996
| 14> O    -0.27498     0.11294     2.59164
| 15> H     0.13293    -0.74566     2.50120
| 16> C    -0.41706     0.23215     4.02639
| 17> H    -0.73723     1.23448     4.35753
| 18> H     0.55690     0.03175     4.58236
| 19> H    -1.14283    -0.47769     4.28447
| 20> O     2.56904    -0.90400    -2.49943
| 21> H     1.80807    -0.49219    -2.10423
| 22> C     2.13439    -2.16150    -2.91751
| 23> H     2.96331    -2.81639    -3.06326
| 24> H     1.63258    -2.07538    -3.88719
| 25> H     1.44168    -2.59915    -2.19568
| 26> O    -3.93805     0.14421     0.34567
| 27> H    -4.67636     0.03321     0.93599
| 28> C    -3.60449    -1.09350    -0.27931
| 29> H    -3.22417    -0.91568    -1.30232
| 30> H    -4.48042    -1.66330    -0.33782
| 31> H    -2.90621    -1.59734     0.24357
| 32> O    -2.30899     2.53258    -2.53163
| 33> H    -2.01867     1.88285    -1.86134
| 34> C    -3.76386     2.46926    -2.67900
| 35> H    -4.12117     3.19027    -3.43230
| 36> H    -4.27898     2.69962    -1.69242
| 37> H    -3.99319     1.43911    -2.98058
| 38> O    -1.13229    -3.35163    -2.40871
| 39> H    -0.35199    -3.63187    -1.91196
| 40> C    -1.99586    -4.41073    -2.68267
| 41> H    -2.91370    -4.13973    -3.32867
| 42> H    -2.37952    -4.72141    -1.69168
| 43> H    -1.44739    -5.21591    -3.11516
| 44> O    -1.92735     3.43210     2.27054
| 45> H    -2.09394     3.85264     3.15912
| 46> C    -2.95090     2.56776     1.92526
| 47> H    -2.85380     2.52401     0.86363
| 48> H    -3.91870     2.95910     2.13936
| 49> H    -2.82591     1.61709     2.39350
| 50> O     4.68906    -1.63161     0.69636
| 51> H     5.02685    -1.26547    -0.14009
| 52> C     3.31244    -1.26664     0.75227
| 53> H     2.71933    -2.13990     0.82408
| 54> H     2.99856    -0.70059    -0.11334
| 55> H     3.15726    -0.69662     1.63824
| 56> O     2.31930    -2.18366     3.93122
| 57> H     2.41680    -1.51179     4.65169
| 58> C     3.43389    -3.08772     4.08390
| 59> H     3.72140    -3.42541     3.07532
| 60> H     3.24895    -3.98313     4.73142
| 61> H     4.32789    -2.61328     4.44652
| 62> O     0.85476     4.00063     3.00162
| 63> H    -0.01822     3.62281     2.82994
| 64> C     1.91787     3.06037     2.68895
| 65> H     2.66048     2.98486     3.46380
| 66> H     2.38558     3.21944     1.72046
| 67> H     1.49723     2.15175     2.70591
| 68> O    -0.21723     2.06270    -4.68946
| 69> H     0.01494     2.63535    -3.95702
| 70> C     1.14775     1.76053    -5.27880
| 71> H     1.03597     1.54475    -6.35299
| 72> H     1.50792     0.86017    -4.79752
| 73> H     1.83962     2.61232    -5.05191
| 74> O     1.28446     5.07157    -0.44510
| 75> H     1.77359     5.89627    -0.56640
| 76> C     0.40365     4.91696    -1.57381
| 77> H    -0.27704     4.03049    -1.41142
| 78> H     0.98966     4.70664    -2.44576
| 79> H    -0.17269     5.81398    -1.67873
| 80> O     1.64083    -5.10944    -0.30076
| 81> H     2.51599    -5.50549    -0.43928
| 82> C     0.70976    -6.20046    -0.52003
| 83> H     0.03387    -6.13767    -1.38112
| 84> H     0.12660    -6.30886     0.41902
| 85> H     1.23411    -7.13762    -0.66650
| 86> O    -0.06994    -2.78290     4.99196
| 87> H     0.68158    -2.77825     4.40800
| 88> C    -0.34081    -4.09264     5.28331
| 89> H    -1.12669    -4.16070     6.09837
| 90> H     0.55789    -4.64973     5.54497
| 91> H    -0.87331    -4.54272     4.33226
| 92> O    -1.76216    -0.18036    -5.49255
| 93> H    -1.09620     0.46274    -5.30625
| 94> C    -1.50548    -1.12704    -4.48198
| 95> H    -1.24385    -2.08779    -4.96932
| 96> H    -2.45009    -1.15718    -3.87401
| 97> H    -0.66831    -0.86556    -3.80790
| 98> O     5.58719    -1.16338    -2.03966
| 99> H     5.58519    -1.92103    -2.58931
|100> C     6.96184    -0.62599    -2.09589
|101> H     6.92089     0.46606    -1.82470
|102> H     7.34352    -0.62573    -3.13499
|103> H     7.65452    -1.23492    -1.55566
|104> O     5.38456     2.62309     0.99964
|105> H     6.22895     2.50273     0.61156
|106> C     4.53689     2.67609    -0.06510
|107> H     3.53875     2.43862     0.28703
|108> H     4.87366     1.93771    -0.79920
|109> H     4.56226     3.65034    -0.46915
|110> O    -5.69993    -0.51947    -2.90854
|111> H    -6.16856    -0.82798    -3.67227
|112> C    -6.65382     0.18213    -2.15226
|113> H    -6.43444     0.01596    -1.11656
|114> H    -7.61917    -0.28385    -2.33404
|115> H    -6.67538     1.23431    -2.44109
|116> O    -3.52147     1.05646     5.32414
|117> H    -4.36356     1.30123     5.67745
|118> C    -2.95469     0.33162     6.34466
|119> H    -2.39408    -0.44934     5.92689
|120> H    -3.74357    -0.09401     6.97537
|121> H    -2.23926     1.03396     6.84445
|122> O    -3.54411    -3.75011     4.20977
|123> H    -3.28850    -4.52554     4.58791
|124> C    -2.81761    -3.71540     2.99362
|125> H    -3.37899    -3.13960     2.21055
|126> H    -2.79183    -4.70027     2.74911
|127> H    -1.78731    -3.33676     3.20966
|128> *
|129> 
|130>                          ****END OF INPUT****
================================================================================

                       ****************************
                       * Single Point Calculation *
                       ****************************

---------------------------------
CARTESIAN COORDINATES (ANGSTROEM)
---------------------------------
  O      0.000000    0.000000    0.000000
  H     -0.607180    0.014920    0.745680
  C      0.447370    1.338520   -0.235270
  H      0.272620    1.576160   -1.280300
  H      1.509080    1.419370    0.013950
  H     -0.202640    2.000450    0.369960
  O     -0.274980    0.112940    2.591640
  H      0.132930   -0.745660    2.501200
  C     -0.417060    0.232150    4.026390
  H     -0.737230    1.234480    4.357530
  H      0.556900    0.031750    4.582360
  H     -1.142830   -0.477690    4.284470
  O      2.569040   -0.904000   -2.499430
  H      1.808070   -0.492190   -2.104230
  C      2.134390   -2.161500   -2.917510
  H      2.963310   -2.816390   -3.063260
  H      1.632580   -2.075380   -3.887190
  H      1.441680   -2.599150   -2.195680
  O     -3.938050    0.144210    0.345670
  H     -4.676360    0.033210    0.935990
  C     -3.604490   -1.093500   -0.279310
  H     -3.224170   -0.915680   -1.302320
  H     -4.480420   -1.663300   -0.337820
  H     -2.906210   -1.597340    0.243570
  O     -2.308990    2.532580   -2.531630
  H     -2.018670    1.882850   -1.861340
  C     -3.763860    2.469260   -2.679000
  H     -4.121170    3.190270   -3.432300
  H     -4.278980    2.699620   -1.692420
  H     -3.993190    1.439110   -2.980580
  O     -1.132290   -3.351630   -2.408710
  H     -0.351990   -3.631870   -1.911960
  C     -1.995860   -4.410730   -2.682670
  H     -2.913700   -4.139730   -3.328670
  H     -2.379520   -4.721410   -1.691680
  H     -1.447390   -5.215910   -3.115160
  O     -1.927350    3.432100    2.270540
  H     -2.093940    3.852640    3.159120
  C     -2.950900    2.567760    1.925260
  H     -2.853800    2.524010    0.863630
  H     -3.918700    2.959100    2.139360
  H     -2.825910    1.617090    2.393500
  O      4.689060   -1.631610    0.696360
  H      5.026850   -1.265470   -0.140090
  C      3.312440   -1.266640    0.752270
  H      2.719330   -2.139900    0.824080
  H      2.998560   -0.700590   -0.113340
  H      3.157260   -0.696620    1.638240
  O      2.319300   -2.183660    3.931220
  H      2.416800   -1.511790    4.651690
  C      3.433890   -3.087720    4.083900
  H      3.721400   -3.425410    3.075320
  H      3.248950   -3.983130    4.731420
  H      4.327890   -2.613280    4.446520
  O      0.854760    4.000630    3.001620
  H     -0.018220    3.622810    2.829940
  C      1.917870    3.060370    2.688950
  H      2.660480    2.984860    3.463800
  H      2.385580    3.219440    1.720460
  H      1.497230    2.151750    2.705910
  O     -0.217230    2.062700   -4.689460
  H      0.014940    2.635350   -3.957020
  C      1.147750    1.760530   -5.278800
  H      1.035970    1.544750   -6.352990
  H      1.507920    0.860170   -4.797520
  H      1.839620    2.612320   -5.051910
  O      1.284460    5.071570   -0.445100
  H      1.773590    5.896270   -0.566400
  C      0.403650    4.916960   -1.573810
  H     -0.277040    4.030490   -1.411420
  H      0.989660    4.706640   -2.445760
  H     -0.172690    5.813980   -1.678730
  O      1.640830   -5.109440   -0.300760
  H      2.515990   -5.505490   -0.439280
  C      0.709760   -6.200460   -0.520030
  H      0.033870   -6.137670   -1.381120
  H      0.126600   -6.308860    0.419020
  H      1.234110   -7.137620   -0.666500
  O     -0.069940   -2.782900    4.991960
  H      0.681580   -2.778250    4.408000
  C     -0.340810   -4.092640    5.283310
  H     -1.126690   -4.160700    6.098370
  H      0.557890   -4.649730    5.544970
  H     -0.873310   -4.542720    4.332260
  O     -1.762160   -0.180360   -5.492550
  H     -1.096200    0.462740   -5.306250
  C     -1.505480   -1.127040   -4.481980
  H     -1.243850   -2.087790   -4.969320
  H     -2.450090   -1.157180   -3.874010
  H     -0.668310   -0.865560   -3.807900
  O      5.587190   -1.163380   -2.039660
  H      5.585190   -1.921030   -2.589310
  C      6.961840   -0.625990   -2.095890
  H      6.920890    0.466060   -1.824700
  H      7.343520   -0.625730   -3.134990
  H      7.654520   -1.234920   -1.555660
  O      5.384560    2.623090    0.999640
  H      6.228950    2.502730    0.611560
  C      4.536890    2.676090   -0.065100
  H      3.538750    2.438620    0.287030
  H      4.873660    1.937710   -0.799200
  H      4.562260    3.650340   -0.469150
  O     -5.699930   -0.519470   -2.908540
  H     -6.168560   -0.827980   -3.672270
  C     -6.653820    0.182130   -2.152260
  H     -6.434440    0.015960   -1.116560
  H     -7.619170   -0.283850   -2.334040
  H     -6.675380    1.234310   -2.441090
  O     -3.521470    1.056460    5.324140
  H     -4.363560    1.301230    5.677450
  C     -2.954690    0.331620    6.344660
  H     -2.394080   -0.449340    5.926890
  H     -3.743570   -0.094010    6.975370
  H     -2.239260    1.033960    6.844450
  O     -3.544110   -3.750110    4.209770
  H     -3.288500   -4.525540    4.587910
  C     -2.817610   -3.715400    2.993620
  H     -3.378990   -3.139600    2.210550
  H     -2.791830   -4.700270    2.749110
  H     -1.787310   -3.336760    3.209660

----------------------------
CARTESIAN COORDINATES (A.U.)
----------------------------
  NO LB      ZA    FRAG     MASS         X           Y           Z
   0 O     8.0000    0    15.999    0.000000    0.000000    0.000000
   1 H     1.0000    0     1.008   -1.147404    0.028195    1.409131
   2 C     6.0000    0    12.011    0.845407    2.529436   -0.444596
   3 H     1.0000    0     1.008    0.515177    2.978511   -2.419416
   4 H     1.0000    0     1.008    2.851748    2.682221    0.026362
   5 H     1.0000    0     1.008   -0.382934    3.780303    0.699123
   6 O     8.0000    0    15.999   -0.519637    0.213426    4.897490
   7 H     1.0000    0     1.008    0.251201   -1.409093    4.726583
   8 C     6.0000    0    12.011   -0.788129    0.438700    7.608774
   9 H     1.0000    0     1.008   -1.393163    2.332829    8.234538
  10 H     1.0000    0     1.008    1.052388    0.059999    8.659405
  11 H     1.0000    0     1.008   -2.159636   -0.902703    8.096475
  12 O     8.0000    0    15.999    4.854782   -1.708312   -4.723238
  13 H     1.0000    0     1.008    3.416757   -0.930104   -3.976418
  14 C     6.0000    0    12.011    4.033413   -4.084643   -5.513295
  15 H     1.0000    0     1.008    5.599844   -5.322206   -5.788722
  16 H     1.0000    0     1.008    3.085129   -3.921900   -7.345725
  17 H     1.0000    0     1.008    2.724380   -4.911682   -4.149234
  18 O     8.0000    0    15.999   -7.441836    0.272517    0.653222
  19 H     1.0000    0     1.008   -8.837040    0.062758    1.768765
  20 C     6.0000    0    12.011   -6.811499   -2.066416   -0.527819
  21 H     1.0000    0     1.008   -6.092798   -1.730384   -2.461028
  22 H     1.0000    0     1.008   -8.466767   -3.143181   -0.638387
  23 H     1.0000    0     1.008   -5.491941   -3.018535    0.460281
  24 O     8.0000    0    15.999   -4.363359    4.785883   -4.784087
  25 H     1.0000    0     1.008   -3.814733    3.558071   -3.517423
  26 C     6.0000    0    12.011   -7.112665    4.666225   -5.062576
  27 H     1.0000    0     1.008   -7.787883    6.028737   -6.486107
  28 H     1.0000    0     1.008   -8.086100    5.101542   -3.198210
  29 H     1.0000    0     1.008   -7.546036    2.719524   -5.632480
  30 O     8.0000    0    15.999   -2.139718   -6.333663   -4.551802
  31 H     1.0000    0     1.008   -0.665165   -6.863240   -3.613081
  32 C     6.0000    0    12.011   -3.771629   -8.335072   -5.069512
  33 H     1.0000    0     1.008   -5.506095   -7.822956   -6.290275
  34 H     1.0000    0     1.008   -4.496641   -8.922172   -3.196812
  35 H     1.0000    0     1.008   -2.735171   -9.856641   -5.886799
  36 O     8.0000    0    15.999   -3.642164    6.485729    4.290699
  37 H     1.0000    0     1.008   -3.956973    7.280434    5.969872
  38 C     6.0000    0    12.011   -5.576393    4.852363    3.638214
  39 H     1.0000    0     1.008   -5.392900    4.769688    1.632024
  40 H     1.0000    0     1.008   -7.405270    5.591889    4.042805
  41 H     1.0000    0     1.008   -5.340196    3.055857    4.523060
  42 O     8.0000    0    15.999    8.861039   -3.083296    1.315930
  43 H     1.0000    0     1.008    9.499370   -2.391392   -0.264732
  44 C     6.0000    0    12.011    6.259604   -2.393603    1.421584
  45 H     1.0000    0     1.008    5.138789   -4.043825    1.557286
  46 H     1.0000    0     1.008    5.666457   -1.323923   -0.214182
  47 H     1.0000    0     1.008    5.966357   -1.316421    3.095825
  48 O     8.0000    0    15.999    4.382842   -4.126519    7.428929
  49 H     1.0000    0     1.008    4.567090   -2.856869    8.790420
  50 C     6.0000    0    12.011    6.489112   -5.834945    7.717453
  51 H     1.0000    0     1.008    7.032427   -6.473087    5.811513
  52 H     1.0000    0     1.008    6.139626   -7.527025    8.941088
  53 H     1.0000    0     1.008    8.178527   -4.938384    8.402705
  54 O     8.0000    0    15.999    1.615262    7.560095    5.672240
  55 H     1.0000    0     1.008   -0.034431    6.846119    5.347812
  56 C     6.0000    0    12.011    3.624249    5.783261    5.081379
  57 H     1.0000    0     1.008    5.027579    5.640568    6.545633
  58 H     1.0000    0     1.008    4.508093    6.083860    3.251198
  59 H     1.0000    0     1.008    2.829355    4.066218    5.113429
  60 O     8.0000    0    15.999   -0.410505    3.897938   -8.861795
  61 H     1.0000    0     1.008    0.028233    4.980090   -7.477684
  62 C     6.0000    0    12.011    2.168933    3.326920   -9.975486
  63 H     1.0000    0     1.008    1.957700    2.919154  -12.005411
  64 H     1.0000    0     1.008    2.849556    1.625486   -9.065999
  65 H     1.0000    0     1.008    3.476378    4.936569   -9.546726
  66 O     8.0000    0    15.999    2.427278    9.583878   -0.841117
  67 H     1.0000    0     1.008    3.351599   11.142336   -1.070341
  68 C     6.0000    0    12.011    0.762788    9.291708   -2.974070
  69 H     1.0000    0     1.008   -0.523530    7.616522   -2.667197
  70 H     1.0000    0     1.008    1.870186    8.894261   -4.621817
  71 H     1.0000    0     1.008   -0.326337   10.986830   -3.172340
  72 O     8.0000    0    15.999    3.100719   -9.655442   -0.568354
  73 H     1.0000    0     1.008    4.754532  -10.403868   -0.830119
  74 C     6.0000    0    12.011    1.341252  -11.717171   -0.982714
  75 H     1.0000    0     1.008    0.064005  -11.598515   -2.609939
  76 H     1.0000    0     1.008    0.239239  -11.922018    0.791833
  77 H     1.0000    0     1.008    2.332130  -13.488147   -1.259502
  78 O     8.0000    0    15.999   -0.132167   -5.258919    9.433437
  79 H     1.0000    0     1.008    1.288000   -5.250132    8.329913
  80 C     6.0000    0    12.011   -0.644038   -7.733969    9.984009
  81 H     1.0000    0     1.008   -2.129136   -7.862584   11.524249
  82 H     1.0000    0     1.008    1.054259   -8.786716   10.478475
  83 H     1.0000    0     1.008   -1.650317   -8.584497    8.186785
  84 O     8.0000    0    15.999   -3.330000   -0.340831  -10.379415
  85 H     1.0000    0     1.008   -2.071518    0.874452  -10.027359
  86 C     6.0000    0    12.011   -2.844945   -2.129797   -8.469715
  87 H     1.0000    0     1.008   -2.350536   -3.945351   -9.390654
  88 H     1.0000    0     1.008   -4.629999   -2.186753   -7.320818
  89 H     1.0000    0     1.008   -1.262923   -1.635671   -7.195888
  90 O     8.0000    0    15.999   10.558259   -2.198470   -3.854399
  91 H     1.0000    0     1.008   10.554480   -3.630221   -4.893087
  92 C     6.0000    0    12.011   13.155971   -1.182950   -3.960658
  93 H     1.0000    0     1.008   13.078587    0.880726   -3.448183
  94 H     1.0000    0     1.008   13.877242   -1.182458   -5.924273
  95 H     1.0000    0     1.008   14.464946   -2.333661   -2.939771
  96 O     8.0000    0    15.999   10.175344    4.956922    1.889046
  97 H     1.0000    0     1.008   11.771010    4.729474    1.155681
  98 C     6.0000    0    12.011    8.573480    5.057077   -0.123021
  99 H     1.0000    0     1.008    6.687268    4.608324    0.542408
 100 H     1.0000    0     1.008    9.209883    3.661741   -1.510269
 101 H     1.0000    0     1.008    8.621422    6.898143   -0.886565
 102 O     8.0000    0    15.999  -10.771307   -0.981656   -5.496344
 103 H     1.0000    0     1.008  -11.656889   -1.564655   -6.939585
 104 C     6.0000    0    12.011  -12.573898    0.344176   -4.067182
 105 H     1.0000    0     1.008  -12.159329    0.030160   -2.109993
 106 H     1.0000    0     1.008  -14.398145   -0.536399   -4.410696
 107 H     1.0000    0     1.008  -12.614640    2.332508   -4.612992
 108 O     8.0000    0    15.999   -6.654614    1.996420   10.061166
 109 H     1.0000    0     1.008   -8.245933    2.458968   10.728826
 110 C     6.0000    0    12.011   -5.583555    0.626671   11.989670
 111 H     1.0000    0     1.008   -4.524156   -0.849130   11.200199
 112 H     1.0000    0     1.008   -7.074322   -0.177653   13.181539
 113 H     1.0000    0     1.008   -4.231588    1.953901   12.934136
 114 O     8.0000    0    15.999   -6.697397   -7.086681    7.955312
 115 H     1.0000    0     1.008   -6.214364   -8.552031    8.669893
 116 C     6.0000    0    12.011   -5.324511   -7.021088    5.657122
 117 H     1.0000    0     1.008   -6.385366   -5.932984    4.177334
 118 H     1.0000    0     1.008   -5.275794   -8.882223    5.195065
 119 H     1.0000    0     1.008   -3.377526   -6.305563    6.065378

--------------------------------
INTERNAL COORDINATES (ANGSTROEM)
--------------------------------
 O      0   0   0     0.000000000000     0.00000000     0.00000000
 H      1   0   0     0.961732198276     0.00000000     0.00000000
 C      1   2   0     1.430778697144   108.08250924     0.00000000
 H      3   1   2     1.085862805791   108.22016820   232.94115761
 H      3   1   2     1.093560905940   109.58835407   111.69316398
 H      3   1   2     1.107685730656   106.60169760   348.30752340
 O      2   1   3     1.878172804084   130.63174662   281.56529738
 H      7   2   1     0.954863300007    86.30420157   294.58770371
 C      7   2   1     1.446687704033   164.08472174   171.84775164
 H      9   7   2     1.103099250929   113.64653775   292.12157824
 H      9   7   2     1.139236973812   112.67695944   172.62893900
 H      9   7   2     1.047482794560   104.86571511    52.18937721
 O      5   3   1     3.583105131433    94.55443962    63.06647224
 H     13   5   3     0.951233860310    36.02165743   357.71748033
 C     13   5   3     1.394638934958   134.64775556   314.08051754
 H     15  13   5     1.066410962528   110.63662757   224.32024796
 H     15  13   5     1.095221088594   109.71305043   107.14883752
 H     15  13   5     1.091981325619   111.15656277   346.47666926
 O      2   1   3     3.357293383233   122.31598112    96.33657718
 H     19   2   1     0.951787979804   133.72634791   168.90289985
 C     19   2   1     1.426109504246    77.68641779    62.05610567
 H     21  19   2     1.105808624899   110.26172221   279.47954828
 H     21  19   2     1.046589138583   107.53304365   160.89447492
 H     21  19   2     1.007399224935   111.63715589    40.53912469
 O      4   3   1     3.024115767857   127.21599312    83.00497704
 H     25   4   3     0.977611098239    41.63313010   319.29024322
 C     25   4   3     1.463685094616   151.22451606   317.52306519
 H     27  25   4     1.102264372190   111.26726815   181.42300931
 H     27  25   4     1.136553756054   110.75260329    60.92523667
 H     27  25   4     1.097611847513   106.01821192   302.21222292
 O     18  15  13     2.690154176288   131.81469649   118.67429186
 H     31  18  15     0.966521137948    42.94082635   148.27929636
 C     31  18  15     1.393735999571   145.18202835    92.73643869
 H     33  31  18     1.154637287463   115.09741202   220.86746952
 H     33  31  18     1.107148697375   104.59637076   103.85167972
 H     33  31  18     1.065918277074   109.56967083   346.85433785
 O      6   3   1     2.938783871434   171.44374174    35.10810347
 H     37   6   3     0.997086022417   151.62627216    62.12381229
 C     37   6   3     1.383458173022    88.19109665   287.34933849
 H     39  37   6     1.066958635281   101.92425015   316.58418167
 H     39  37   6     1.065655969626   113.09989682   201.70132870
 H     39  37   6     1.067072934058   111.12700643    77.13447208
 O     13   5   3     3.903456780419    72.97714369   220.63434780
 H     43  13   5     0.973554922025    54.19199391   248.02593418
 C     43  13   5     1.425275992010    57.30352005    37.61311502
 H     45  43  13     1.058073331958   109.43520262    96.12715022
 H     45  43  13     1.080839455701   112.53087154   334.92101866
 H     45  43  13     1.064869228450   108.08709052   213.12559978
 O     48  45  43     2.858534975053   115.57181162   266.83224054
 H     49  48  45     0.989945739826   101.64579572   169.03135983
 C     49  48  45     1.443241675569   100.62235288    60.28965676
 H     51  49  48     1.101784984741   107.25809614   318.78240855
 H     51  49  48     1.120376732220   115.74010971   196.76842004
 H     51  49  48     1.075091892817   113.66842250    72.09355401
 O     37   6   3     2.932207424348    72.47419014    87.21252762
 H     55  37   6     0.966600256156    12.31641964   289.96456013
 C     55  37   6     1.453290841023   120.99652658   333.03716481
 H     57  55  37     1.075901433543   113.28917879   218.37798873
 H     57  55  37     1.087211473955   114.31077941    90.17789497
 H     57  55  37     1.001406987992   106.02886421   329.85488075
 O     25   4   3     3.041788523369    69.97874789   185.06185967
 H     61  25   4     0.958279335580    62.10104162   306.53254609
 C     61  25   4     1.517168001541   157.67173178   352.13997502
 H     63  61  25     1.101335522400   109.06139141   167.29190839
 H     63  61  25     1.082589948642   106.99405700    51.03531811
 H     63  61  25     1.120584389102   108.99232784   292.50715152
 O     59  57  55     3.054914222184   124.41025409   348.23573484
 H     67  59  57     0.966484317979   115.08035301   106.70765159
 C     67  59  57     1.440040545367   135.31591918   268.26329431
 H     69  67  59     1.129397383165   109.89020845    24.34470716
 H     69  67  59     1.071419164006   108.93002261   267.40706266
 H     69  67  59     1.071364028890   108.41551042   144.97076852
 O     32  31  18     2.958126112474   165.61350047   197.86010895
 H     73  32  31     0.970540271447   137.18591418   111.68460701
 C     73  32  31     1.450963582658    82.00896661     8.96022801
 H     75  73  32     1.096469727945   118.11046947    22.64855642
 H     75  73  32     1.110693948890   106.41145228   258.16573008
 H     75  73  32     1.083819749313   111.10958263   142.63885079
 O     12   9   7     2.639247657250   112.10337571    93.67639739
 H     79  12   9     0.951742199600    98.75731600   325.96928383
 C     79  12   9     1.368822211611   144.32601541   189.88365113
 H     81  79  12     1.134267314878   110.33242853   305.67179398
 H     81  79  12     1.089255210545   112.16213023   180.56611341
 H     81  79  12     1.179247369681   106.43284851    58.02527885
 O     61  25   4     2.839556376725    87.04862864   109.55289746
 H     85  61  25     0.944345287276    12.19724723   206.10052919
 C     85  61  25     1.408310821410   103.23176965   286.00736767
 H     87  85  61     1.108598707829   108.06690561   228.80519611
 H     87  85  61     1.123754418278   104.65772825   106.50751497
 H     87  85  61     1.106168723884   114.60232531   348.12244754
 O     44  43  13     1.983121143198   160.11385146   289.07852924
 H     91  44  43     0.936030258592   121.34575131   356.06698495
 C     91  44  43     1.477028248714   108.55200852   233.17953632
 H     93  91  44     1.125963641109   108.05056960   288.74322369
 H     93  91  44     1.106981707166   110.89859966   175.61256263
 H     93  91  44     1.068854424232   112.12454978    59.16294103
 O     59  57  55     3.141511711788   125.96528156   148.47345494
 H     97  59  57     0.937063011809   168.41482606   178.03057794
 C     97  59  57     1.361992913528    65.02951391   158.41542402
 H     99  97  59     1.084744669219   108.08297289   334.88948537
 H     99  97  59     1.094313422791   107.85649241   215.18171248
 H     99  97  59     1.055018057618   108.68486960    94.72753552
 O     30  27  25     2.598881837560   146.81426150   149.14446715
 H    103  30  27     0.947668723711   123.21306764   112.04392418
 C    103  30  27     1.405029583496    94.84463833     0.44407652
 H    105 103  30     1.071641051519   107.68606786   270.99283742
 H    105 103  30     1.087235922558   107.38487810   157.14067513
 H    105 103  30     1.091315882272   110.63390576    36.38425607
 O     10   9   7     2.952629064088   108.49264860   109.15768838
 H    109  10   9     0.945439515305   161.19476557   180.56608769
 C    109  10   9     1.374079206014    83.45325364    68.85130897
 H    111 109  10     1.048195528802   108.51912425   305.99713466
 H    111 109  10     1.096032689020   109.59363411   187.11446411
 H    111 109  10     1.120228371628   105.31072098    61.04726457
 O     84  81  79     2.788620994721   111.06483986   282.48288871
 H    115  84  81     0.899787761975    57.62335835   266.05840067
 C    115  84  81     1.417048995836    63.48934532   137.10169341
 H    117 115  84     1.122449005211   110.78663862   193.38856866
 H    117 115  84     1.015095397192   101.30196655    76.68903161
 H    117 115  84     1.118731255128   108.34367620   320.33545964

---------------------------
INTERNAL COORDINATES (A.U.)
---------------------------
 O      0   0   0     0.000000000000     0.00000000     0.00000000
 H      1   0   0     1.817410468915     0.00000000     0.00000000
 C      1   2   0     2.703779895850   108.08250924     0.00000000
 H      3   1   2     2.051983321956   108.22016820   232.94115761
 H      3   1   2     2.066530622989   109.58835407   111.69316398
 H      3   1   2     2.093222673393   106.60169760   348.30752340
 O      2   1   3     3.549232231897   130.63174662   281.56529738
 H      7   2   1     1.804430132345    86.30420157   294.58770371
 C      7   2   1     2.733843561934   164.08472174   171.84775164
 H      9   7   2     2.084555482789   113.64653775   292.12157824
 H      9   7   2     2.152845882142   112.67695944   172.62893900
 H      9   7   2     1.979455611714   104.86571511    52.18937721
 O      5   3   1     6.771087407456    94.55443962    63.06647224
 H     13   5   3     1.797571485298    36.02165743   357.71748033
 C     13   5   3     2.635485642774   134.64775556   314.08051754
 H     15  13   5     2.015224665389   110.63662757   224.32024796
 H     15  13   5     2.069667913537   109.71305043   107.14883752
 H     15  13   5     2.063545648776   111.15656277   346.47666926
 O      2   1   3     6.344365045536   122.31598112    96.33657718
 H     19   2   1     1.798618619388   133.72634791   168.90289985
 C     19   2   1     2.694956400007    77.68641779    62.05610567
 H     21  19   2     2.089675457586   110.26172221   279.47954828
 H     21  19   2     1.977766846659   107.53304365   160.89447492
 H     21  19   2     1.903708642652   111.63715589    40.53912469
 O      4   3   1     5.714750598522   127.21599312    83.00497704
 H     25   4   3     1.847417241154    41.63313010   319.29024322
 C     25   4   3     2.765963975126   151.22451606   317.52306519
 H     27  25   4     2.082977790618   111.26726815   181.42300931
 H     27  25   4     2.147775335421   110.75260329    60.92523667
 H     27  25   4     2.074185793146   106.01821192   302.21222292
 O     18  15  13     5.083654651209   131.81469649   118.67429186
 H     31  18  15     1.826460253367    42.94082635   148.27929636
 C     31  18  15     2.633779342176   145.18202835    92.73643869
 H     33  31  18     2.181948257319   115.09741202   220.86746952
 H     33  31  18     2.092207827567   104.59637076   103.85167972
 H     33  31  18     2.014293624811   109.56967083   346.85433785
 O      6   3   1     5.553496683795   171.44374174    35.10810347
 H     37   6   3     1.884219514330   151.62627216    62.12381229
 C     37   6   3     2.614357064746    88.19109665   287.34933849
 H     39  37   6     2.016259616903   101.92425015   316.58418167
 H     39  37   6     2.013797935572   113.09989682   201.70132870
 H     39  37   6     2.016475610290   111.12700643    77.13447208
 O     13   5   3     7.376464290590    72.97714369   220.63434780
 H     43  13   5     1.839752178959    54.19199391   248.02593418
 C     43  13   5     2.693381290152    57.30352005    37.61311502
 H     45  43  13     1.999468827006   109.43520262    96.12715022
 H     45  43  13     2.042490566011   112.53087154   334.92101866
 H     45  43  13     2.012311210211   108.08709052   213.12559978
 O     48  45  43     5.401848247085   115.57181162   266.83224054
 H     49  48  45     1.870726335714   101.64579572   169.03135983
 C     49  48  45     2.727331511888   100.62235288    60.28965676
 H     51  49  48     2.082071879626   107.25809614   318.78240855
 H     51  49  48     2.117205190713   115.74010971   196.76842004
 H     51  49  48     2.031629246222   113.66842250    72.09355401
 O     37   6   3     5.541068999868    72.47419014    87.21252762
 H     55  37   6     1.826609765112    12.31641964   289.96456013
 C     55  37   6     2.746321682469   120.99652658   333.03716481
 H     57  55  37     2.033159056490   113.28917879   218.37798873
 H     57  55  37     2.054531935432   114.31077941    90.17789497
 H     57  55  37     1.892384955901   106.02886421   329.85488075
 O     25   4   3     5.748147266472    69.97874789   185.06185967
 H     61  25   4     1.810885504043    62.10104162   306.53254609
 C     61  25   4     2.867032022061   157.67173178   352.13997502
 H     63  61  25     2.081222518895   109.06139141   167.29190839
 H     63  61  25     2.045798518269   106.99405700    51.03531811
 H     63  61  25     2.117597605351   108.99232784   292.50715152
 O     59  57  55     5.772951242548   124.41025409   348.23573484
 H     67  59  57     1.826390673711   115.08035301   106.70765159
 C     67  59  57     2.721282252486   135.31591918   268.26329431
 H     69  67  59     2.134251750549   109.89020845    24.34470716
 H     69  67  59     2.024688794607   108.93002261   267.40706266
 H     69  67  59     2.024584604337   108.41551042   144.97076852
 O     32  31  18     5.590048222177   165.61350047   197.86010895
 H     73  32  31     1.834055314976   137.18591418   111.68460701
 C     73  32  31     2.741923801517    82.00896661     8.96022801
 H     75  73  32     2.072027499951   118.11046947    22.64855642
 H     75  73  32     2.098907382005   106.41145228   258.16573008
 H     75  73  32     2.048122504736   111.10958263   142.63885079
 O     12   9   7     4.987455271796   112.10337571    93.67639739
 H     79  12   9     1.798532107340    98.75731600   325.96928383
 C     79  12   9     2.586699105973   144.32601541   189.88365113
 H     81  79  12     2.143454587777   110.33242853   305.67179398
 H     81  79  12     2.058394037877   112.16213023   180.56611341
 H     81  79  12     2.228454572844   106.43284851    58.02527885
 O     61  25   4     5.365983893840    87.04862864   109.55289746
 H     85  61  25     1.784553968810    12.19724723   206.10052919
 C     85  61  25     2.661321763902   103.23176965   286.00736767
 H     87  85  61     2.094947950216   108.06690561   228.80519611
 H     87  85  61     2.123588092330   104.65772825   106.50751497
 H     87  85  61     2.090355946051   114.60232531   348.12244754
 O     44  43  13     3.747555851034   160.11385146   289.07852924
 H     91  44  43     1.768840841803   121.34575131   356.06698495
 C     91  44  43     2.791178882135   108.55200852   233.17953632
 H     93  91  44     2.127762918449   108.05056960   288.74322369
 H     93  91  44     2.091892261804   110.89859966   175.61256263
 H     93  91  44     2.019842138828   112.12454978    59.16294103
 O     59  57  55     5.936596781785   125.96528156   148.47345494
 H     97  59  57     1.770792462546   168.41482606   178.03057794
 C     97  59  57     2.573793602909    65.02951391   158.41542402
 H     99  97  59     2.049870350056   108.08297289   334.88948537
 H     99  97  59     2.067952673748   107.85649241   215.18171248
 H     99  97  59     1.993695195240   108.68486960    94.72753552
 O     30  27  25     4.911174927411   146.81426150   149.14446715
 H    103  30  27     1.790834353496   123.21306764   112.04392418
 C    103  30  27     2.655121122866    94.84463833     0.44407652
 H    105 103  30     2.025108101238   107.68606786   270.99283742
 H    105 103  30     2.054578136595   107.38487810   157.14067513
 H    105 103  30     2.062288143093   110.63390576    36.38425607
 O     10   9   7     5.579660306183   108.49264860   109.15768838
 H    109  10   9     1.786621760114   161.19476557   180.56608769
 C    109  10   9     2.596633385682    83.45325364    68.85130897
 H    111 109  10     1.980802484236   108.51912425   305.99713466
 H    111 109  10     2.071201616073   109.59363411   187.11446411
 H    111 109  10     2.116924829825   105.31072098    61.04726457
 O     84  81  79     5.269729971326   111.06483986   282.48288871
 H    115  84  81     1.700352448787    57.62335835   266.05840067
 C    115  84  81     2.677834520478    63.48934532   137.10169341
 H    117 115  84     2.121121219142   110.78663862   193.38856866
 H    117 115  84     1.918252300497   101.30196655    76.68903161
 H    117 115  84     2.114095689650   108.34367620   320.33545964

---------------------
BASIS SET INFORMATION
---------------------
There are 3 groups of distinct atoms

 Group   1 Type O   : 18s5p2d1f contracted to 4s3p2d1f pattern {8811/311/11/1}
 Group   2 Type H   : 5s2p1d contracted to 3s2p1d pattern {311/11/1}
 Group   3 Type C   : 18s5p2d1f contracted to 4s3p2d1f pattern {8811/311/11/1}

Atom   0O    basis set group =>   1
Atom   1H    basis set group =>   2
Atom   2C    basis set group =>   3
Atom   3H    basis set group =>   2
Atom   4H    basis set group =>   2
Atom   5H    basis set group =>   2
Atom   6O    basis set group =>   1
Atom   7H    basis set group =>   2
Atom   8C    basis set group =>   3
Atom   9H    basis set group =>   2
Atom  10H    basis set group =>   2
Atom  11H    basis set group =>   2
Atom  12O    basis set group =>   1
Atom  13H    basis set group =>   2
Atom  14C    basis set group =>   3
Atom  15H    basis set group =>   2
Atom  16H    basis set group =>   2
Atom  17H    basis set group =>   2
Atom  18O    basis set group =>   1
Atom  19H    basis set group =>   2
Atom  20C    basis set group =>   3
Atom  21H    basis set group =>   2
Atom  22H    basis set group =>   2
Atom  23H    basis set group =>   2
Atom  24O    basis set group =>   1
Atom  25H    basis set group =>   2
Atom  26C    basis set group =>   3
Atom  27H    basis set group =>   2
Atom  28H    basis set group =>   2
Atom  29H    basis set group =>   2
Atom  30O    basis set group =>   1
Atom  31H    basis set group =>   2
Atom  32C    basis set group =>   3
Atom  33H    basis set group =>   2
Atom  34H    basis set group =>   2
Atom  35H    basis set group =>   2
Atom  36O    basis set group =>   1
Atom  37H    basis set group =>   2
Atom  38C    basis set group =>   3
Atom  39H    basis set group =>   2
Atom  40H    basis set group =>   2
Atom  41H    basis set group =>   2
Atom  42O    basis set group =>   1
Atom  43H    basis set group =>   2
Atom  44C    basis set group =>   3
Atom  45H    basis set group =>   2
Atom  46H    basis set group =>   2
Atom  47H    basis set group =>   2
Atom  48O    basis set group =>   1
Atom  49H    basis set group =>   2
Atom  50C    basis set group =>   3
Atom  51H    basis set group =>   2
Atom  52H    basis set group =>   2
Atom  53H    basis set group =>   2
Atom  54O    basis set group =>   1
Atom  55H    basis set group =>   2
Atom  56C    basis set group =>   3
Atom  57H    basis set group =>   2
Atom  58H    basis set group =>   2
Atom  59H    basis set group =>   2
Atom  60O    basis set group =>   1
Atom  61H    basis set group =>   2
Atom  62C    basis set group =>   3
Atom  63H    basis set group =>   2
Atom  64H    basis set group =>   2
Atom  65H    basis set group =>   2
Atom  66O    basis set group =>   1
Atom  67H    basis set group =>   2
Atom  68C    basis set group =>   3
Atom  69H    basis set group =>   2
Atom  70H    basis set group =>   2
Atom  71H    basis set group =>   2
Atom  72O    basis set group =>   1
Atom  73H    basis set group =>   2
Atom  74C    basis set group =>   3
Atom  75H    basis set group =>   2
Atom  76H    basis set group =>   2
Atom  77H    basis set group =>   2
Atom  78O    basis set group =>   1
Atom  79H    basis set group =>   2
Atom  80C    basis set group =>   3
Atom  81H    basis set group =>   2
Atom  82H    basis set group =>   2
Atom  83H    basis set group =>   2
Atom  84O    basis set group =>   1
Atom  85H    basis set group =>   2
Atom  86C    basis set group =>   3
Atom  87H    basis set group =>   2
Atom  88H    basis set group =>   2
Atom  89H    basis set group =>   2
Atom  90O    basis set group =>   1
Atom  91H    basis set group =>   2
Atom  92C    basis set group =>   3
Atom  93H    basis set group =>   2
Atom  94H    basis set group =>   2
Atom  95H    basis set group =>   2
Atom  96O    basis set group =>   1
Atom  97H    basis set group =>   2
Atom  98C    basis set group =>   3
Atom  99H    basis set group =>   2
Atom 100H    basis set group =>   2
Atom 101H    basis set group =>   2
Atom 102O    basis set group =>   1
Atom 103H    basis set group =>   2
Atom 104C    basis set group =>   3
Atom 105H    basis set group =>   2
Atom 106H    basis set group =>   2
Atom 107H    basis set group =>   2
Atom 108O    basis set group =>   1
Atom 109H    basis set group =>   2
Atom 110C    basis set group =>   3
Atom 111H    basis set group =>   2
Atom 112H    basis set group =>   2
Atom 113H    basis set group =>   2
Atom 114O    basis set group =>   1
Atom 115H    basis set group =>   2
Atom 116C    basis set group =>   3
Atom 117H    basis set group =>   2
Atom 118H    basis set group =>   2
Atom 119H    basis set group =>   2
---------------------------------
AUXILIARY/C BASIS SET INFORMATION
---------------------------------
There are 3 groups of distinct atoms

 Group   1 Type O   : 8s6p5d3f1g contracted to 8s6p5d3f1g pattern {11111111/111111/11111/111/1}
 Group   2 Type H   : 4s3p2d1f contracted to 4s3p2d1f pattern {1111/111/11/1}
 Group   3 Type C   : 8s6p5d3f1g contracted to 8s6p5d3f1g pattern {11111111/111111/11111/111/1}

Atom   0O    basis set group =>   1
Atom   1H    basis set group =>   2
Atom   2C    basis set group =>   3
Atom   3H    basis set group =>   2
Atom   4H    basis set group =>   2
Atom   5H    basis set group =>   2
Atom   6O    basis set group =>   1
Atom   7H    basis set group =>   2
Atom   8C    basis set group =>   3
Atom   9H    basis set group =>   2
Atom  10H    basis set group =>   2
Atom  11H    basis set group =>   2
Atom  12O    basis set group =>   1
Atom  13H    basis set group =>   2
Atom  14C    basis set group =>   3
Atom  15H    basis set group =>   2
Atom  16H    basis set group =>   2
Atom  17H    basis set group =>   2
Atom  18O    basis set group =>   1
Atom  19H    basis set group =>   2
Atom  20C    basis set group =>   3
Atom  21H    basis set group =>   2
Atom  22H    basis set group =>   2
Atom  23H    basis set group =>   2
Atom  24O    basis set group =>   1
Atom  25H    basis set group =>   2
Atom  26C    basis set group =>   3
Atom  27H    basis set group =>   2
Atom  28H    basis set group =>   2
Atom  29H    basis set group =>   2
Atom  30O    basis set group =>   1
Atom  31H    basis set group =>   2
Atom  32C    basis set group =>   3
Atom  33H    basis set group =>   2
Atom  34H    basis set group =>   2
Atom  35H    basis set group =>   2
Atom  36O    basis set group =>   1
Atom  37H    basis set group =>   2
Atom  38C    basis set group =>   3
Atom  39H    basis set group =>   2
Atom  40H    basis set group =>   2
Atom  41H    basis set group =>   2
Atom  42O    basis set group =>   1
Atom  43H    basis set group =>   2
Atom  44C    basis set group =>   3
Atom  45H    basis set group =>   2
Atom  46H    basis set group =>   2
Atom  47H    basis set group =>   2
Atom  48O    basis set group =>   1
Atom  49H    basis set group =>   2
Atom  50C    basis set group =>   3
Atom  51H    basis set group =>   2
Atom  52H    basis set group =>   2
Atom  53H    basis set group =>   2
Atom  54O    basis set group =>   1
Atom  55H    basis set group =>   2
Atom  56C    basis set group =>   3
Atom  57H    basis set group =>   2
Atom  58H    basis set group =>   2
Atom  59H    basis set group =>   2
Atom  60O    basis set group =>   1
Atom  61H    basis set group =>   2
Atom  62C    basis set group =>   3
Atom  63H    basis set group =>   2
Atom  64H    basis set group =>   2
Atom  65H    basis set group =>   2
Atom  66O    basis set group =>   1
Atom  67H    basis set group =>   2
Atom  68C    basis set group =>   3
Atom  69H    basis set group =>   2
Atom  70H    basis set group =>   2
Atom  71H    basis set group =>   2
Atom  72O    basis set group =>   1
Atom  73H    basis set group =>   2
Atom  74C    basis set group =>   3
Atom  75H    basis set group =>   2
Atom  76H    basis set group =>   2
Atom  77H    basis set group =>   2
Atom  78O    basis set group =>   1
Atom  79H    basis set group =>   2
Atom  80C    basis set group =>   3
Atom  81H    basis set group =>   2
Atom  82H    basis set group =>   2
Atom  83H    basis set group =>   2
Atom  84O    basis set group =>   1
Atom  85H    basis set group =>   2
Atom  86C    basis set group =>   3
Atom  87H    basis set group =>   2
Atom  88H    basis set group =>   2
Atom  89H    basis set group =>   2
Atom  90O    basis set group =>   1
Atom  91H    basis set group =>   2
Atom  92C    basis set group =>   3
Atom  93H    basis set group =>   2
Atom  94H    basis set group =>   2
Atom  95H    basis set group =>   2
Atom  96O    basis set group =>   1
Atom  97H    basis set group =>   2
Atom  98C    basis set group =>   3
Atom  99H    basis set group =>   2
Atom 100H    basis set group =>   2
Atom 101H    basis set group =>   2
Atom 102O    basis set group =>   1
Atom 103H    basis set group =>   2
Atom 104C    basis set group =>   3
Atom 105H    basis set group =>   2
Atom 106H    basis set group =>   2
Atom 107H    basis set group =>   2
Atom 108O    basis set group =>   1
Atom 109H    basis set group =>   2
Atom 110C    basis set group =>   3
Atom 111H    basis set group =>   2
Atom 112H    basis set group =>   2
Atom 113H    basis set group =>   2
Atom 114O    basis set group =>   1
Atom 115H    basis set group =>   2
Atom 116C    basis set group =>   3
Atom 117H    basis set group =>   2
Atom 118H    basis set group =>   2
Atom 119H    basis set group =>   2


           ************************************************************
           *        Program running with 24 parallel MPI-processes    *
           *              working on a common directory               *
           ************************************************************
------------------------------------------------------------------------------
                           ORCA GTO INTEGRAL CALCULATION
------------------------------------------------------------------------------

                         BASIS SET STATISTICS AND STARTUP INFO

 # of primitive gaussian shells          ... 1680
 # of primitive gaussian functions       ... 3280
 # of contracted shells                  ...  880
 # of contracted basis functions         ... 2320
 Highest angular momentum                ...    3
 Maximum contraction depth               ...    8
 Integral package used                   ... LIBINT
 Integral threshhold            Thresh   ...  2.500e-11
 Primitive cut-off              TCut     ...  2.500e-12


------------------------------ INTEGRAL EVALUATION ----------------------------


 * One electron integrals 
 Pre-screening matrix                    ... done
 Shell pair data                         ... done (   0.054 sec)



           ************************************************************
           *        Program running with 24 parallel MPI-processes    *
           *              working on a common directory               *
           ************************************************************
-------------------------------------------------------------------------------
                                 ORCA SCF
-------------------------------------------------------------------------------

------------
SCF SETTINGS
------------
Hamiltonian:
 Ab initio Hamiltonian  Method          .... Hartree-Fock(GTOs)


General Settings:
 Integral files         IntName         .... input
 Hartree-Fock type      HFTyp           .... RHF
 Total Charge           Charge          ....    0
 Multiplicity           Mult            ....    1
 Number of Electrons    NEL             ....  360
 Basis Dimension        Dim             .... 2320
 Nuclear Repulsion      ENuc            ....   5872.7765134097 Eh

Convergence Acceleration:
 DIIS                   CNVDIIS         .... on
   Start iteration      DIISMaxIt       ....    12
   Startup error        DIISStart       ....  0.200000
   # of expansion vecs  DIISMaxEq       ....     5
   Bias factor          DIISBfac        ....   1.050
   Max. coefficient     DIISMaxC        ....  10.000
 Newton-Raphson         CNVNR           .... off
 SOSCF                  CNVSOSCF        .... on
   Start iteration      SOSCFMaxIt      ....   150
   Startup grad/error   SOSCFStart      ....  0.003300
 Level Shifting         CNVShift        .... on
   Level shift para.    LevelShift      ....    0.2500
   Turn off err/grad.   ShiftErr        ....    0.0010
 Zerner damping         CNVZerner       .... off
 Static damping         CNVDamp         .... on
   Fraction old density DampFac         ....    0.7000
   Max. Damping (<1)    DampMax         ....    0.9800
   Min. Damping (>=0)   DampMin         ....    0.0000
   Turn off err/grad.   DampErr         ....    0.1000
 Fernandez-Rico         CNVRico         .... off

SCF Procedure:
 Maximum # iterations   MaxIter         ....   125
 SCF integral mode      SCFMode         .... Direct
   Integral package                     .... LIBINT
 Reset frequency        DirectResetFreq ....    20
 Integral Threshold     Thresh          ....  2.500e-11 Eh
 Primitive CutOff       TCut            ....  2.500e-12 Eh

Convergence Tolerance:
 Convergence Check Mode ConvCheckMode   .... Total+1el-Energy
 Convergence forced     ConvForced      .... 1
 Energy Change          TolE            ....  1.000e-08 Eh
 1-El. energy change                    ....  1.000e-05 Eh
 Orbital Gradient       TolG            ....  1.000e-05
 Orbital Rotation angle TolX            ....  1.000e-05
 DIIS Error             TolErr          ....  5.000e-07


Diagonalization of the overlap matrix:
Smallest eigenvalue                        ... 5.795e-04
Time for diagonalization                   ...    0.910 sec
Threshold for overlap eigenvalues          ... 1.000e-08
Number of eigenvalues below threshold      ... 0
Time for construction of square roots      ...    0.916 sec
Total time needed                          ...    1.835 sec

-------------------
DFT GRID GENERATION
-------------------

General Integration Accuracy     IntAcc      ...  4.340
Radial Grid Type                 RadialGrid  ... Gauss-Chebyshev
Angular Grid (max. acc.)         AngularGrid ... Lebedev-110
Angular grid pruning method      GridPruning ... 3 (G Style)
Weight generation scheme         WeightScheme... Becke
Basis function cutoff            BFCut       ...    1.0000e-11
Integration weight cutoff        WCut        ...    1.0000e-14
Grids for H and He will be reduced by one unit

# of grid points (after initial pruning)     ... 130960 (   0.0 sec)
# of grid points (after weights+screening)   ... 114693 (   0.3 sec)
nearest neighbour list constructed           ...    0.0 sec
Grid point re-assignment to atoms done       ...    0.0 sec
Grid point division into batches done        ...    0.1 sec
Reduced shell lists constructed in    0.3 sec

Total number of grid points                  ...   114693
Total number of batches                      ...     1851
Average number of points per batch           ...       61
Average number of grid points per atom       ...      956
Average number of shells per batch           ...   297.41 (33.80%)
Average number of basis functions per batch  ...   624.49 (26.92%)
Average number of large shells per batch     ...   148.72 (50.01%)
Average number of large basis fcns per batch ...   308.19 (49.35%)
Maximum spatial batch extension              ...   4.39,  3.62,  3.73 au
Average spatial batch extension              ...   0.08,  0.08,  0.08 au

Time for grid setup =    0.625 sec

------------------------------
INITIAL GUESS: MODEL POTENTIAL
------------------------------
Loading Hartree-Fock densities                     ... done
Calculating cut-offs                               ... done
Setting up the integral package                    ... done
Initializing the effective Hamiltonian             ... done
Starting the Coulomb interaction                   ... done (   1.2 sec)
Reading the grid                                   ... done
Mapping shells                                     ... done
Starting the XC term evaluation                    ... done (   0.1 sec)
Transforming the Hamiltonian                       ... done (   0.6 sec)
Diagonalizing the Hamiltonian                      ... done (   0.9 sec)
Back transforming the eigenvectors                 ... done (   0.4 sec)
Now organizing SCF variables                       ... done
                      ------------------
                      INITIAL GUESS DONE (   4.1 sec)
                      ------------------
--------------
SCF ITERATIONS
--------------
ITER       Energy         Delta-E        Max-DP      RMS-DP      [F,P]     Damp
               ***  Starting incremental Fock matrix formation  ***
  0  -2299.3190104001   0.000000000000 0.03098797  0.00022254  0.3121396 0.7000
  1  -2300.1580888764  -0.839078476250 0.02202143  0.00016825  0.1869860 0.7000
                               ***Turning on DIIS***
  2  -2300.6487797385  -0.490690862125 0.01478906  0.00010401  0.1104778 0.7000
  3  -2306.4629590421  -5.814179303642 0.03735717  0.00019760  0.0830656 0.0000
  4  -2301.3757517218   5.087207320334 0.00578726  0.00004070  0.0064042 0.0000
                      *** Initiating the SOSCF procedure ***
                           *** Shutting down DIIS ***
                      *** Re-Reading the Fockian *** 
                      *** Removing any level shift *** 
ITER      Energy       Delta-E        Grad      Rot      Max-DP    RMS-DP
  5  -2301.70642752  -0.3306757991  0.000979  0.000979  0.002440  0.000019
               *** Restarting incremental Fock matrix formation ***
  6  -2301.65724279   0.0491847319  0.000319  0.000314  0.001198  0.000009
  7  -2301.65734805  -0.0001052562  0.000120  0.000221  0.000764  0.000006
  8  -2301.65736602  -0.0000179770  0.000064  0.000032  0.000128  0.000001
  9  -2301.65736771  -0.0000016900  0.000015  0.000009  0.000043  0.000000
 10  -2301.65736780  -0.0000000923  0.000003  0.000006  0.000011  0.000000
                  ***Gradient check signals convergence***
              ***Rediagonalizing the Fockian in SOSCF/NRSCF***

               *****************************************************
               *                     SUCCESS                       *
               *           SCF CONVERGED AFTER  11 CYCLES          *
               *****************************************************


----------------
TOTAL SCF ENERGY
----------------

Total Energy       :        -2301.65736783 Eh          -62631.28109 eV

Components:
Nuclear Repulsion  :         5872.77651341 Eh          159806.37333 eV
Electronic Energy  :        -8174.43388124 Eh         -222437.65442 eV
One Electron Energy:       -14875.95486745 Eh         -404795.31134 eV
Two Electron Energy:         6701.52098621 Eh          182357.65692 eV

Virial components:
Potential Energy   :        -4601.35929754 Eh         -125209.35201 eV
Kinetic Energy     :         2299.70192971 Eh           62578.07092 eV
Virial Ratio       :            2.00085030


---------------
SCF CONVERGENCE
---------------

  Last Energy change         ...   -2.4842e-08  Tolerance :   1.0000e-08
  Last MAX-Density change    ...    4.4506e-06  Tolerance :   1.0000e-07
  Last RMS-Density change    ...    2.6242e-08  Tolerance :   5.0000e-09
  Last Orbital Gradient      ...    8.9373e-07  Tolerance :   1.0000e-05
  Last Orbital Rotation      ...    2.4454e-06  Tolerance :   1.0000e-05

             **** THE GBW FILE WAS UPDATED (input.gbw) ****
             **** DENSITY FILE WAS UPDATED (input.scfp) ****
             **** ENERGY FILE WAS UPDATED (input.en.tmp) ****
             **** THE GBW FILE WAS UPDATED (input.gbw) ****
             **** DENSITY FILE WAS UPDATED (input.scfp) ****
----------------
ORBITAL ENERGIES
----------------

  NO   OCC          E(Eh)            E(eV) 
   0   2.0000     -20.584865      -560.1427 
   1   2.0000     -20.572957      -559.8186 
   2   2.0000     -20.562511      -559.5344 
   3   2.0000     -20.548445      -559.1516 
   4   2.0000     -20.546976      -559.1116 
   5   2.0000     -20.546501      -559.0987 
   6   2.0000     -20.544343      -559.0400 
   7   2.0000     -20.543391      -559.0141 
   8   2.0000     -20.540795      -558.9434 
   9   2.0000     -20.539909      -558.9193 
  10   2.0000     -20.539542      -558.9093 
  11   2.0000     -20.538195      -558.8727 
  12   2.0000     -20.535439      -558.7977 
  13   2.0000     -20.529953      -558.6484 
  14   2.0000     -20.529920      -558.6475 
  15   2.0000     -20.526198      -558.5463 
  16   2.0000     -20.514832      -558.2370 
  17   2.0000     -20.503276      -557.9225 
  18   2.0000     -20.495321      -557.7060 
  19   2.0000     -20.493848      -557.6660 
  20   2.0000     -11.289466      -307.2020 
  21   2.0000     -11.286870      -307.1314 
  22   2.0000     -11.283049      -307.0274 
  23   2.0000     -11.279271      -306.9246 
  24   2.0000     -11.271639      -306.7169 
  25   2.0000     -11.271589      -306.7155 
  26   2.0000     -11.262203      -306.4601 
  27   2.0000     -11.261743      -306.4476 
  28   2.0000     -11.256843      -306.3143 
  29   2.0000     -11.256740      -306.3115 
  30   2.0000     -11.249606      -306.1174 
  31   2.0000     -11.249567      -306.1163 
  32   2.0000     -11.249413      -306.1121 
  33   2.0000     -11.243358      -305.9473 
  34   2.0000     -11.238175      -305.8063 
  35   2.0000     -11.237125      -305.7777 
  36   2.0000     -11.229531      -305.5711 
  37   2.0000     -11.228544      -305.5442 
  38   2.0000     -11.213665      -305.1393 
  39   2.0000     -11.210304      -305.0479 
  40   2.0000      -1.378266       -37.5045 
  41   2.0000      -1.376172       -37.4475 
  42   2.0000      -1.371933       -37.3322 
  43   2.0000      -1.366660       -37.1887 
  44   2.0000      -1.362433       -37.0737 
  45   2.0000      -1.361141       -37.0385 
  46   2.0000      -1.360170       -37.0121 
  47   2.0000      -1.355457       -36.8839 
  48   2.0000      -1.354558       -36.8594 
  49   2.0000      -1.350932       -36.7607 
  50   2.0000      -1.349505       -36.7219 
  51   2.0000      -1.345118       -36.6025 
  52   2.0000      -1.341576       -36.5061 
  53   2.0000      -1.324162       -36.0323 
  54   2.0000      -1.323932       -36.0260 
  55   2.0000      -1.316641       -35.8276 
  56   2.0000      -1.311524       -35.6884 
  57   2.0000      -1.307200       -35.5707 
  58   2.0000      -1.303744       -35.4767 
  59   2.0000      -1.284530       -34.9538 
  60   2.0000      -0.938049       -25.5256 
  61   2.0000      -0.935020       -25.4432 
  62   2.0000      -0.933680       -25.4067 
  63   2.0000      -0.926427       -25.2094 
  64   2.0000      -0.922435       -25.1007 
  65   2.0000      -0.921043       -25.0629 
  66   2.0000      -0.919598       -25.0235 
  67   2.0000      -0.916000       -24.9256 
  68   2.0000      -0.912115       -24.8199 
  69   2.0000      -0.910104       -24.7652 
  70   2.0000      -0.909306       -24.7435 
  71   2.0000      -0.906828       -24.6761 
  72   2.0000      -0.905495       -24.6398 
  73   2.0000      -0.904463       -24.6117 
  74   2.0000      -0.902622       -24.5616 
  75   2.0000      -0.893609       -24.3163 
  76   2.0000      -0.889870       -24.2146 
  77   2.0000      -0.886496       -24.1228 
  78   2.0000      -0.884886       -24.0790 
  79   2.0000      -0.865963       -23.5640 
  80   2.0000      -0.707986       -19.2653 
  81   2.0000      -0.703269       -19.1369 
  82   2.0000      -0.699317       -19.0294 
  83   2.0000      -0.699289       -19.0286 
  84   2.0000      -0.698474       -19.0064 
  85   2.0000      -0.697395       -18.9771 
  86   2.0000      -0.691296       -18.8111 
  87   2.0000      -0.689605       -18.7651 
  88   2.0000      -0.687793       -18.7158 
  89   2.0000      -0.680125       -18.5071 
  90   2.0000      -0.679670       -18.4948 
  91   2.0000      -0.676795       -18.4165 
  92   2.0000      -0.675768       -18.3886 
  93   2.0000      -0.674326       -18.3493 
  94   2.0000      -0.662476       -18.0269 
  95   2.0000      -0.657789       -17.8993 
  96   2.0000      -0.649746       -17.6805 
  97   2.0000      -0.644279       -17.5317 
  98   2.0000      -0.644154       -17.5283 
  99   2.0000      -0.638994       -17.3879 
 100   2.0000      -0.636323       -17.3152 
 101   2.0000      -0.628764       -17.1095 
 102   2.0000      -0.628010       -17.0890 
 103   2.0000      -0.627723       -17.0812 
 104   2.0000      -0.625064       -17.0089 
 105   2.0000      -0.622635       -16.9428 
 106   2.0000      -0.622448       -16.9377 
 107   2.0000      -0.619594       -16.8600 
 108   2.0000      -0.618634       -16.8339 
 109   2.0000      -0.613609       -16.6971 
 110   2.0000      -0.609076       -16.5738 
 111   2.0000      -0.606816       -16.5123 
 112   2.0000      -0.606117       -16.4933 
 113   2.0000      -0.605245       -16.4695 
 114   2.0000      -0.601610       -16.3706 
 115   2.0000      -0.598824       -16.2948 
 116   2.0000      -0.598530       -16.2868 
 117   2.0000      -0.598234       -16.2788 
 118   2.0000      -0.594868       -16.1872 
 119   2.0000      -0.593507       -16.1502 
 120   2.0000      -0.592583       -16.1250 
 121   2.0000      -0.591095       -16.0845 
 122   2.0000      -0.590358       -16.0645 
 123   2.0000      -0.589480       -16.0406 
 124   2.0000      -0.588451       -16.0126 
 125   2.0000      -0.582131       -15.8406 
 126   2.0000      -0.581034       -15.8107 
 127   2.0000      -0.579417       -15.7667 
 128   2.0000      -0.576655       -15.6916 
 129   2.0000      -0.575304       -15.6548 
 130   2.0000      -0.571602       -15.5541 
 131   2.0000      -0.569771       -15.5043 
 132   2.0000      -0.568525       -15.4704 
 133   2.0000      -0.565013       -15.3748 
 134   2.0000      -0.561119       -15.2688 
 135   2.0000      -0.557643       -15.1743 
 136   2.0000      -0.554240       -15.0816 
 137   2.0000      -0.546841       -14.8803 
 138   2.0000      -0.544109       -14.8060 
 139   2.0000      -0.530185       -14.4271 
 140   2.0000      -0.519598       -14.1390 
 141   2.0000      -0.517762       -14.0890 
 142   2.0000      -0.516393       -14.0518 
 143   2.0000      -0.504859       -13.7379 
 144   2.0000      -0.504746       -13.7348 
 145   2.0000      -0.502405       -13.6711 
 146   2.0000      -0.497242       -13.5306 
 147   2.0000      -0.497064       -13.5258 
 148   2.0000      -0.488848       -13.3022 
 149   2.0000      -0.488395       -13.2899 
 150   2.0000      -0.487434       -13.2638 
 151   2.0000      -0.483565       -13.1585 
 152   2.0000      -0.481159       -13.0930 
 153   2.0000      -0.476298       -12.9607 
 154   2.0000      -0.473351       -12.8805 
 155   2.0000      -0.472187       -12.8488 
 156   2.0000      -0.467436       -12.7196 
 157   2.0000      -0.466542       -12.6953 
 158   2.0000      -0.465337       -12.6625 
 159   2.0000      -0.463189       -12.6040 
 160   2.0000      -0.455463       -12.3938 
 161   2.0000      -0.454401       -12.3649 
 162   2.0000      -0.448666       -12.2088 
 163   2.0000      -0.447895       -12.1878 
 164   2.0000      -0.444812       -12.1039 
 165   2.0000      -0.443788       -12.0761 
 166   2.0000      -0.442562       -12.0427 
 167   2.0000      -0.439671       -11.9641 
 168   2.0000      -0.435823       -11.8593 
 169   2.0000      -0.435729       -11.8568 
 170   2.0000      -0.430917       -11.7259 
 171   2.0000      -0.428833       -11.6691 
 172   2.0000      -0.426487       -11.6053 
 173   2.0000      -0.425468       -11.5776 
 174   2.0000      -0.424289       -11.5455 
 175   2.0000      -0.417195       -11.3525 
 176   2.0000      -0.416346       -11.3293 
 177   2.0000      -0.403627       -10.9832 
 178   2.0000      -0.400644       -10.9021 
 179   2.0000      -0.394647       -10.7389 
 180   0.0000       0.101483         2.7615 
 181   0.0000       0.119918         3.2631 
 182   0.0000       0.122108         3.3227 
 183   0.0000       0.124930         3.3995 
 184   0.0000       0.129256         3.5172 
 185   0.0000       0.131526         3.5790 
 186   0.0000       0.136012         3.7011 
 187   0.0000       0.140355         3.8193 
 188   0.0000       0.144909         3.9432 
 189   0.0000       0.147121         4.0034 
 190   0.0000       0.155878         4.2417 
 191   0.0000       0.158304         4.3077 
 192   0.0000       0.160159         4.3582 
 193   0.0000       0.161632         4.3982 
 194   0.0000       0.165099         4.4926 
 195   0.0000       0.170851         4.6491 
 196   0.0000       0.173015         4.7080 
 197   0.0000       0.174320         4.7435 
 198   0.0000       0.178693         4.8625 
 199   0.0000       0.180832         4.9207 
 200   0.0000       0.185325         5.0429 
 201   0.0000       0.186306         5.0696 
 202   0.0000       0.189238         5.1494 
 203   0.0000       0.193206         5.2574 
 204   0.0000       0.194657         5.2969 
 205   0.0000       0.200480         5.4553 
 206   0.0000       0.202404         5.5077 
 207   0.0000       0.203124         5.5273 
 208   0.0000       0.207409         5.6439 
 209   0.0000       0.209167         5.6917 
 210   0.0000       0.211985         5.7684 
 211   0.0000       0.213009         5.7963 
 212   0.0000       0.215900         5.8749 
 213   0.0000       0.219459         5.9718 
 214   0.0000       0.221277         6.0212 
 215   0.0000       0.223695         6.0871 
 216   0.0000       0.225994         6.1496 
 217   0.0000       0.229539         6.2461 
 218   0.0000       0.230937         6.2841 
 219   0.0000       0.232457         6.3255 
 220   0.0000       0.234493         6.3809 
 221   0.0000       0.237554         6.4642 
 222   0.0000       0.239302         6.5117 
 223   0.0000       0.244735         6.6596 
 224   0.0000       0.247310         6.7296 
 225   0.0000       0.247632         6.7384 
 226   0.0000       0.250196         6.8082 
 227   0.0000       0.254711         6.9310 
 228   0.0000       0.255133         6.9425 
 229   0.0000       0.258686         7.0392 
 230   0.0000       0.261469         7.1149 
 231   0.0000       0.262013         7.1297 
 232   0.0000       0.263419         7.1680 
 233   0.0000       0.268037         7.2937 
 234   0.0000       0.271637         7.3916 
 235   0.0000       0.276173         7.5150 
 236   0.0000       0.277305         7.5459 
 237   0.0000       0.278278         7.5723 
 238   0.0000       0.279924         7.6171 
 239   0.0000       0.281555         7.6615 
 240   0.0000       0.285481         7.7683 
 241   0.0000       0.285875         7.7791 
 242   0.0000       0.288983         7.8636 
 243   0.0000       0.293229         7.9792 
 244   0.0000       0.294791         8.0217 
 245   0.0000       0.300436         8.1753 
 246   0.0000       0.300717         8.1829 
 247   0.0000       0.305309         8.3079 
 248   0.0000       0.307201         8.3594 
 249   0.0000       0.310978         8.4621 
 250   0.0000       0.311703         8.4819 
 251   0.0000       0.314981         8.5711 
 252   0.0000       0.317897         8.6504 
 253   0.0000       0.320611         8.7243 
 254   0.0000       0.323736         8.8093 
 255   0.0000       0.323988         8.8162 
 256   0.0000       0.327246         8.9048 
 257   0.0000       0.330570         8.9953 
 258   0.0000       0.333415         9.0727 
 259   0.0000       0.335550         9.1308 
 260   0.0000       0.336891         9.1673 
 261   0.0000       0.340627         9.2689 
 262   0.0000       0.344237         9.3672 
 263   0.0000       0.345670         9.4061 
 264   0.0000       0.347648         9.4600 
 265   0.0000       0.353828         9.6282 
 266   0.0000       0.355312         9.6685 
 267   0.0000       0.360023         9.7967 
 268   0.0000       0.365005         9.9323 
 269   0.0000       0.366902         9.9839 
 270   0.0000       0.370333        10.0773 
 271   0.0000       0.372555        10.1377 
 272   0.0000       0.375357        10.2140 
 273   0.0000       0.376705        10.2507 
 274   0.0000       0.386825        10.5260 
 275   0.0000       0.388137        10.5617 
 276   0.0000       0.390244        10.6191 
 277   0.0000       0.394235        10.7277 
 278   0.0000       0.395407        10.7596 
 279   0.0000       0.400122        10.8879 
 280   0.0000       0.401747        10.9321 
 281   0.0000       0.405434        11.0324 
 282   0.0000       0.406295        11.0558 
 283   0.0000       0.407982        11.1018 
 284   0.0000       0.411234        11.1902 
 285   0.0000       0.415261        11.2998 
 286   0.0000       0.418788        11.3958 
 287   0.0000       0.420709        11.4481 
 288   0.0000       0.424542        11.5524 
 289   0.0000       0.429619        11.6905 
 290   0.0000       0.432300        11.7635 
 291   0.0000       0.434236        11.8162 
 292   0.0000       0.437153        11.8955 
 293   0.0000       0.441003        12.0003 
 294   0.0000       0.444273        12.0893 
 295   0.0000       0.448221        12.1967 
 296   0.0000       0.449791        12.2394 
 297   0.0000       0.455251        12.3880 
 298   0.0000       0.458848        12.4859 
 299   0.0000       0.464759        12.6467 
 300   0.0000       0.470124        12.7927 
 301   0.0000       0.476555        12.9677 
 302   0.0000       0.480879        13.0854 
 303   0.0000       0.484603        13.1867 
 304   0.0000       0.485816        13.2197 
 305   0.0000       0.491240        13.3673 
 306   0.0000       0.493144        13.4191 
 307   0.0000       0.502685        13.6787 
 308   0.0000       0.508750        13.8438 
 309   0.0000       0.509805        13.8725 
 310   0.0000       0.517255        14.0752 
 311   0.0000       0.521096        14.1798 
 312   0.0000       0.525704        14.3051 
 313   0.0000       0.533226        14.5098 
 314   0.0000       0.536909        14.6100 
 315   0.0000       0.538342        14.6490 
 316   0.0000       0.541495        14.7348 
 317   0.0000       0.543557        14.7909 
 318   0.0000       0.548352        14.9214 
 319   0.0000       0.554079        15.0773 
 320   0.0000       0.555080        15.1045 
 321   0.0000       0.558358        15.1937 
 322   0.0000       0.562648        15.3104 
 323   0.0000       0.564640        15.3646 
 324   0.0000       0.566190        15.4068 
 325   0.0000       0.567296        15.4369 
 326   0.0000       0.570039        15.5116 
 327   0.0000       0.573819        15.6144 
 328   0.0000       0.575801        15.6683 
 329   0.0000       0.576075        15.6758 
 330   0.0000       0.579084        15.7577 
 331   0.0000       0.581000        15.8098 
 332   0.0000       0.582338        15.8462 
 333   0.0000       0.584616        15.9082 
 334   0.0000       0.587920        15.9981 
 335   0.0000       0.588942        16.0259 
 336   0.0000       0.591230        16.0882 
 337   0.0000       0.593245        16.1430 
 338   0.0000       0.596028        16.2187 
 339   0.0000       0.597845        16.2682 
 340   0.0000       0.598809        16.2944 
 341   0.0000       0.601537        16.3687 
 342   0.0000       0.602389        16.3918 
 343   0.0000       0.604236        16.4421 
 344   0.0000       0.605148        16.4669 
 345   0.0000       0.607458        16.5298 
 346   0.0000       0.609195        16.5770 
 347   0.0000       0.609972        16.5982 
 348   0.0000       0.611313        16.6347 
 349   0.0000       0.612357        16.6631 
 350   0.0000       0.616193        16.7675 
 351   0.0000       0.617399        16.8003 
 352   0.0000       0.619537        16.8585 
 353   0.0000       0.620493        16.8845 
 354   0.0000       0.621417        16.9096 
 355   0.0000       0.623741        16.9728 
 356   0.0000       0.625652        17.0248 
[...]
  VA   - Mayer's total valence
  BVA  - Mayer's bonded valence
  FA   - Mayer's free valence

  ATOM       NA         ZA         QA         VA         BVA        FA
  0 O      8.4886     8.0000    -0.4886     1.9131     1.9131    -0.0000
  1 H      0.7232     1.0000     0.2768     0.9996     0.9996    -0.0000
  2 C      6.1236     6.0000    -0.1236     3.8824     3.8824     0.0000
  3 H      0.9173     1.0000     0.0827     0.9689     0.9689    -0.0000
  4 H      0.9113     1.0000     0.0887     0.9902     0.9902     0.0000
  5 H      0.8611     1.0000     0.1389     0.9719     0.9719     0.0000
  6 O      8.4460     8.0000    -0.4460     1.9387     1.9387    -0.0000
  7 H      0.7492     1.0000     0.2508     0.9900     0.9900     0.0000
  8 C      6.1384     6.0000    -0.1384     3.8514     3.8514     0.0000
  9 H      0.8771     1.0000     0.1229     0.9746     0.9746    -0.0000
 10 H      0.9333     1.0000     0.0667     0.9700     0.9700    -0.0000
 11 H      0.8326     1.0000     0.1674     0.9663     0.9663     0.0000
 12 O      8.4049     8.0000    -0.4049     1.9861     1.9861    -0.0000
 13 H      0.7477     1.0000     0.2523     0.9927     0.9927    -0.0000
 14 C      6.0828     6.0000    -0.0828     3.9408     3.9408    -0.0000
 15 H      0.9149     1.0000     0.0851     0.9680     0.9680    -0.0000
 16 H      0.9249     1.0000     0.0751     0.9583     0.9583     0.0000
 17 H      0.9151     1.0000     0.0849     0.9858     0.9858    -0.0000
 18 O      8.4304     8.0000    -0.4304     1.9563     1.9563    -0.0000
 19 H      0.7790     1.0000     0.2210     1.0131     1.0131    -0.0000
 20 C      6.1202     6.0000    -0.1202     3.8825     3.8825    -0.0000
 21 H      0.8902     1.0000     0.1098     0.9728     0.9728    -0.0000
 22 H      0.9082     1.0000     0.0918     0.9739     0.9739    -0.0000
 23 H      0.8651     1.0000     0.1349     0.9499     0.9499    -0.0000
 24 O      8.4544     8.0000    -0.4544     1.9651     1.9651    -0.0000
 25 H      0.7425     1.0000     0.2575     0.9863     0.9863    -0.0000
 26 C      6.0295     6.0000    -0.0295     3.8943     3.8943    -0.0000
 27 H      0.9056     1.0000     0.0944     0.9766     0.9766     0.0000
 28 H      0.9536     1.0000     0.0464     0.9647     0.9647    -0.0000
 29 H      0.9008     1.0000     0.0992     0.9793     0.9793    -0.0000
 30 O      8.4012     8.0000    -0.4012     1.9614     1.9614    -0.0000
 31 H      0.7609     1.0000     0.2391     1.0022     1.0022    -0.0000
 32 C      6.0754     6.0000    -0.0754     3.9285     3.9285    -0.0000
 33 H      0.9021     1.0000     0.0979     0.9748     0.9748     0.0000
 34 H      0.9349     1.0000     0.0651     0.9665     0.9665    -0.0000
 35 H      0.9147     1.0000     0.0853     0.9624     0.9624     0.0000
 36 O      8.4196     8.0000    -0.4196     1.9631     1.9631    -0.0000
 37 H      0.7709     1.0000     0.2291     0.9996     0.9996    -0.0000
 38 C      6.0755     6.0000    -0.0755     3.8863     3.8863    -0.0000
 39 H      0.8888     1.0000     0.1112     0.9640     0.9640    -0.0000
 40 H      0.9180     1.0000     0.0820     0.9763     0.9763    -0.0000
 41 H      0.9253     1.0000     0.0747     0.9721     0.9721     0.0000
 42 O      8.4938     8.0000    -0.4938     1.9122     1.9122    -0.0000
 43 H      0.7258     1.0000     0.2742     1.0117     1.0117    -0.0000
 44 C      6.0714     6.0000    -0.0714     3.8730     3.8730    -0.0000
 45 H      0.9213     1.0000     0.0787     0.9709     0.9709    -0.0000
 46 H      0.9045     1.0000     0.0955     0.9964     0.9964    -0.0000
 47 H      0.9185     1.0000     0.0815     0.9721     0.9721     0.0000
 48 O      8.4301     8.0000    -0.4301     1.9847     1.9847    -0.0000
 49 H      0.7498     1.0000     0.2502     0.9857     0.9857    -0.0000
 50 C      6.0669     6.0000    -0.0669     3.8833     3.8833     0.0000
 51 H      0.8897     1.0000     0.1103     0.9660     0.9660     0.0000
 52 H      0.9276     1.0000     0.0724     0.9654     0.9654     0.0000
 53 H      0.8965     1.0000     0.1035     0.9729     0.9729     0.0000
 54 O      8.4853     8.0000    -0.4853     1.9348     1.9348    -0.0000
 55 H      0.7371     1.0000     0.2629     1.0220     1.0220    -0.0000
 56 C      6.0399     6.0000    -0.0399     3.8936     3.8936    -0.0000
 57 H      0.9223     1.0000     0.0777     0.9711     0.9711    -0.0000
 58 H      0.9324     1.0000     0.0676     0.9819     0.9819    -0.0000
 59 H      0.9038     1.0000     0.0962     0.9471     0.9471     0.0000
 60 O      8.4286     8.0000    -0.4286     1.9676     1.9676    -0.0000
 61 H      0.7628     1.0000     0.2372     1.0136     1.0136    -0.0000
 62 C      6.0929     6.0000    -0.0929     3.8771     3.8771    -0.0000
 63 H      0.8930     1.0000     0.1070     0.9736     0.9736    -0.0000
 64 H      0.8984     1.0000     0.1016     0.9562     0.9562    -0.0000
 65 H      0.9145     1.0000     0.0855     0.9835     0.9835    -0.0000
 66 O      8.4003     8.0000    -0.4003     1.9750     1.9750    -0.0000
 67 H      0.7862     1.0000     0.2138     1.0172     1.0172    -0.0000
 68 C      6.0446     6.0000    -0.0446     3.9059     3.9059     0.0000
 69 H      0.9191     1.0000     0.0809     0.9981     0.9981    -0.0000
 70 H      0.9455     1.0000     0.0545     0.9684     0.9684    -0.0000
 71 H      0.9096     1.0000     0.0904     0.9753     0.9753     0.0000
 72 O      8.4146     8.0000    -0.4146     1.9816     1.9816    -0.0000
 73 H      0.7615     1.0000     0.2385     1.0043     1.0043    -0.0000
 74 C      6.0268     6.0000    -0.0268     3.9157     3.9157    -0.0000
 75 H      0.9369     1.0000     0.0631     0.9551     0.9551    -0.0000
 76 H      0.9289     1.0000     0.0711     0.9669     0.9669     0.0000
 77 H      0.9237     1.0000     0.0763     0.9740     0.9740    -0.0000
 78 O      8.4197     8.0000    -0.4197     1.9628     1.9628    -0.0000
 79 H      0.7304     1.0000     0.2696     1.0040     1.0040    -0.0000
 80 C      6.0324     6.0000    -0.0324     3.9482     3.9482    -0.0000
 81 H      0.9268     1.0000     0.0732     0.9746     0.9746    -0.0000
 82 H      0.9123     1.0000     0.0877     0.9647     0.9647    -0.0000
 83 H      1.0085     1.0000    -0.0085     0.9489     0.9489     0.0000
 84 O      8.4506     8.0000    -0.4506     1.9553     1.9553    -0.0000
 85 H      0.7340     1.0000     0.2660     1.0277     1.0277    -0.0000
 86 C      6.0174     6.0000    -0.0174     3.9256     3.9256    -0.0000
 87 H      0.9358     1.0000     0.0642     0.9755     0.9755    -0.0000
 88 H      0.9325     1.0000     0.0675     0.9770     0.9770     0.0000
 89 H      0.9544     1.0000     0.0456     0.9747     0.9747    -0.0000
 90 O      8.4015     8.0000    -0.4015     1.9960     1.9960    -0.0000
 91 H      0.7815     1.0000     0.2185     1.0181     1.0181    -0.0000
 92 C      6.0638     6.0000    -0.0638     3.9030     3.9030    -0.0000
 93 H      0.9217     1.0000     0.0783     0.9692     0.9692     0.0000
 94 H      0.9158     1.0000     0.0842     0.9779     0.9779     0.0000
 95 H      0.8945     1.0000     0.1055     0.9593     0.9593    -0.0000
 96 O      8.3791     8.0000    -0.3791     1.9738     1.9738    -0.0000
 97 H      0.7916     1.0000     0.2084     1.0271     1.0271    -0.0000
 98 C      6.0555     6.0000    -0.0555     3.9210     3.9210    -0.0000
 99 H      0.9149     1.0000     0.0851     0.9637     0.9637    -0.0000
100 H      0.9378     1.0000     0.0622     0.9576     0.9576    -0.0000
101 H      0.9275     1.0000     0.0725     0.9665     0.9665    -0.0000
102 O      8.3848     8.0000    -0.3848     1.9823     1.9823    -0.0000
103 H      0.7830     1.0000     0.2170     1.0152     1.0152    -0.0000
104 C      6.0577     6.0000    -0.0577     3.9242     3.9242     0.0000
105 H      0.9229     1.0000     0.0771     0.9644     0.9644     0.0000
106 H      0.9215     1.0000     0.0785     0.9776     0.9776    -0.0000
107 H      0.9245     1.0000     0.0755     0.9578     0.9578     0.0000
108 O      8.3805     8.0000    -0.3805     1.9749     1.9749    -0.0000
109 H      0.7854     1.0000     0.2146     1.0191     1.0191    -0.0000
110 C      6.0564     6.0000    -0.0564     3.9181     3.9181    -0.0000
111 H      0.8949     1.0000     0.1051     0.9547     0.9547     0.0000
112 H      0.9283     1.0000     0.0717     0.9805     0.9805    -0.0000
113 H      0.9570     1.0000     0.0430     0.9631     0.9631    -0.0000
114 O      8.3943     8.0000    -0.3943     1.9801     1.9801    -0.0000
115 H      0.8005     1.0000     0.1995     1.0444     1.0444    -0.0000
116 C      6.0780     6.0000    -0.0780     3.9053     3.9053     0.0000
117 H      0.8955     1.0000     0.1045     0.9839     0.9839     0.0000
118 H      0.8981     1.0000     0.1019     0.9665     0.9665    -0.0000
119 H      0.9333     1.0000     0.0667     0.9426     0.9426    -0.0000

  Mayer bond orders larger than 0.100000
B(  0-O ,  1-H ) :   0.9400 B(  0-O ,  2-C ) :   0.9540 B(  2-C ,  3-H ) :   0.9740 
B(  2-C ,  4-H ) :   0.9752 B(  2-C ,  5-H ) :   0.9811 B(  6-O ,  7-H ) :   0.9578 
B(  6-O ,  8-C ) :   0.9237 B(  8-C ,  9-H ) :   0.9690 B(  8-C , 10-H ) :   0.9778 
B(  8-C , 11-H ) :   0.9784 B( 12-O , 13-H ) :   0.9717 B( 12-O , 14-C ) :   0.9866 
B( 14-C , 15-H ) :   0.9776 B( 14-C , 16-H ) :   0.9776 B( 14-C , 17-H ) :   0.9849 
B( 18-O , 19-H ) :   0.9922 B( 18-O , 20-C ) :   0.9393 B( 20-C , 21-H ) :   0.9726 
B( 20-C , 22-H ) :   0.9886 B( 20-C , 23-H ) :   0.9669 B( 24-O , 25-H ) :   0.9689 
B( 24-O , 26-C ) :   0.9586 B( 26-C , 27-H ) :   0.9769 B( 26-C , 28-H ) :   0.9725 
B( 26-C , 29-H ) :   0.9730 B( 30-O , 31-H ) :   0.9722 B( 30-O , 32-C ) :   0.9755 
B( 32-C , 33-H ) :   0.9764 B( 32-C , 34-H ) :   0.9849 B( 32-C , 35-H ) :   0.9762 
B( 36-O , 37-H ) :   0.9754 B( 36-O , 38-C ) :   0.9576 B( 38-C , 39-H ) :   0.9738 
B( 38-C , 40-H ) :   0.9887 B( 38-C , 41-H ) :   0.9587 B( 42-O , 43-H ) :   0.9531 
B( 42-O , 44-C ) :   0.9504 B( 44-C , 45-H ) :   0.9716 B( 44-C , 46-H ) :   0.9821 
B( 44-C , 47-H ) :   0.9709 B( 48-O , 49-H ) :   0.9667 B( 48-O , 50-C ) :   0.9460 
B( 50-C , 51-H ) :   0.9729 B( 50-C , 52-H ) :   0.9715 B( 50-C , 53-H ) :   0.9851 
B( 54-O , 55-H ) :   0.9629 B( 54-O , 56-C ) :   0.9586 B( 56-C , 57-H ) :   0.9774 
B( 56-C , 58-H ) :   0.9817 B( 56-C , 59-H ) :   0.9681 B( 60-O , 61-H ) :   0.9763 
B( 60-O , 62-C ) :   0.9419 B( 62-C , 63-H ) :   0.9777 B( 62-C , 64-H ) :   0.9549 
B( 62-C , 65-H ) :   0.9892 B( 66-O , 67-H ) :   0.9941 B( 66-O , 68-C ) :   0.9661 
B( 68-C , 69-H ) :   0.9704 B( 68-C , 70-H ) :   0.9725 B( 68-C , 71-H ) :   0.9831 
B( 72-O , 73-H ) :   0.9859 B( 72-O , 74-C ) :   0.9770 B( 74-C , 75-H ) :   0.9593 
B( 74-C , 76-H ) :   0.9753 B( 74-C , 77-H ) :   0.9877 B( 78-O , 79-H ) :   0.9242 
B( 78-O , 80-C ) :   1.0168 B( 80-C , 81-H ) :   0.9784 B( 80-C , 82-H ) :   0.9752 
B( 80-C , 83-H ) :   0.9786 B( 84-O , 85-H ) :   0.9690 B( 84-O , 86-C ) :   0.9775 
B( 86-C , 87-H ) :   0.9761 B( 86-C , 88-H ) :   0.9780 B( 86-C , 89-H ) :   0.9731 
B( 90-O , 91-H ) :   0.9942 B( 90-O , 92-C ) :   0.9539 B( 92-C , 93-H ) :   0.9783 
B( 92-C , 94-H ) :   0.9882 B( 92-C , 95-H ) :   0.9666 B( 96-O , 97-H ) :   1.0076 
B( 96-O , 98-C ) :   0.9787 B( 98-C , 99-H ) :   0.9785 B( 98-C ,100-H ) :   0.9807 
B( 98-C ,101-H ) :   0.9723 B(102-O ,103-H ) :   0.9945 B(102-O ,104-C ) :   0.9752 
B(104-C ,105-H ) :   0.9692 B(104-C ,106-H ) :   0.9941 B(104-C ,107-H ) :   0.9718 
B(108-O ,109-H ) :   1.0013 B(108-O ,110-C ) :   0.9771 B(110-C ,111-H ) :   0.9600 
B(110-C ,112-H ) :   0.9925 B(110-C ,113-H ) :   0.9775 B(114-O ,115-H ) :   1.0209 
B(114-O ,116-C ) :   0.9592 B(116-C ,117-H ) :   0.9878 B(116-C ,118-H ) :   0.9896 
B(116-C ,119-H ) :   0.9602 

-------
TIMINGS
-------

Total SCF time: 0 days 0 hours 20 min 18 sec 

Total time                  ....    1218.857 sec
Sum of individual times     ....    1201.571 sec  ( 98.6%)

Fock matrix formation       ....    1134.658 sec  ( 93.1%)
Diagonalization             ....       9.592 sec  (  0.8%)
Density matrix formation    ....       0.656 sec  (  0.1%)
Population analysis         ....      10.442 sec  (  0.9%)
Initial guess               ....       3.453 sec  (  0.3%)
Orbital Transformation      ....       0.000 sec  (  0.0%)
Orbital Orthonormalization  ....       0.000 sec  (  0.0%)
DIIS solution               ....      32.058 sec  (  2.6%)
SOSCF solution              ....      10.086 sec  (  0.8%)


           ************************************************************
           *        Program running with 24 parallel MPI-processes    *
           *              working on a common directory               *
           ************************************************************

------------------------------------------------------------------------------
                                ORCA  MP2 
------------------------------------------------------------------------------

Freezing NCore=80 chemical core electrons

-------------
RI-MP2 ENERGY
-------------
Dimension of the basis                    ... 2320
Memory devoted to MP2                     ... 8000 MB   
Data format for buffers                   ... DOUBLE
Compression type for matrix containers    ... UNCOMPRESSED
Overall scaling of the MP2 energy         ...   1.000e+00
Calculating two index integrals           ... done (    0.183 sec)
Cholesky decomposition of V**-1           ... done (    4.708 sec)

-----------------
RI-TRANSFORMATION (AUX index driven)
-----------------

Dimension of the orbital-basis         ... 2320
Dimension of the aux-basis             ... 5640
Transformation of internal/external MOs...   40- 179 to  180-2319
Number Format for Storage              ... Double (8 Byte)
Integral mode                          ... Direct

First Phase: integral generation and transformation of MO indices
  Aux angular momentum 0               ... done (    9.615 sec)
  Aux angular momentum 1               ... done (   20.069 sec)
  Aux angular momentum 2               ... done (   25.014 sec)
  Aux angular momentum 3               ... done (   20.690 sec)
  Aux angular momentum 4               ... done (    5.890 sec)
Closing buffer VIA (12.59 GB; CompressionRatio= 1.00)
  Phase 1 completed in    82.753 sec
Second Phase: sorting and transformation of aux index

IA-Transformation
Memory available                       ... 7330 MB 
Max. # MO pairs treated in a batch     ... 6    
# of internal orbitals                 ... 140
# batches for internal orbitals        ... 1
Closing buffer IAV ( 0.54 GB; CompressionRatio= 1.00)
(ia|v) transformation done in    86.932 sec

  Phase 2 completed in    99.796 sec
RI-Integral transformation completed in   182.554 sec
Opening buffers                              ... done

Starting loop over batches of integrals:

Operator 0  - window                       ... ( 40-179)x(180-2319)
Operator 0  - Memory available             ...  8000 MB
Operator 0  - Memory needed per MO         ...  92.1 MB
Operator 0  - Number of orbitals per batch ... 6
Operator 0  - Number of batches            ... 1

OPERATOR  0   PASS   0:  MOs    40 ...   45 +   46 ...   51 +   52 ...   57 +   58 ...   63
                            +   64 ...   69 +   70 ...   75 +   76 ...   81 +   82 ...   87
                            +   88 ...   93 +   94 ...   99 +  100 ...  105 +  106 ...  111
                            +  112 ...  117 +  118 ...  123 +  124 ...  129 +  130 ...  135
                            +  136 ...  141 +  142 ...  147 +  148 ...  153 +  154 ...  159
                            +  160 ...  165 +  166 ...  171 +  172 ...  177 +  178 ...  179
  Reading integrals       ... ok
  Internal MO  42
  Internal MO  45
Time spent in pair loops =   109.982 sec
Deleting buffer (Ka|jb)[aa] ...done

-----------------------------------------------
 RI-MP2 CORRELATION ENERGY:     -8.669276059 Eh
-----------------------------------------------


-------
TIMINGS
-------

Total time                : 4455.335 sec
Integral trafo            :  182.575 sec (  4.1%)
I/O of integrals          :    0.522 sec (  0.0%)
K(i,j) Operators          :  108.625 sec (  2.4%)
T(i,j) pair energies      :    0.588 sec (  0.0%)
V-calculation             :    0.183 sec (  0.0%)
V**(-1/2)                 :    4.708 sec (  0.1%)
Gamma(ia|P)               :    0.000 sec (  0.0%)
Gamma-Trafo               :    0.000 sec (  0.0%)
D(virtual)                :    0.000 sec (  0.0%)
D(internal)               :    0.000 sec (  0.0%)
W(virtual)                :    0.000 sec (  0.0%)
W(internal)               :    0.000 sec (  0.0%)
L(virtual)                :    0.000 sec (  0.0%)
L(internal)               :    0.000 sec (  0.0%)
G(D)                      :    0.000 sec (  0.0%)
G(Z)                      :    0.000 sec (  0.0%)
Z-Vector Solution         :    0.000 sec (  0.0%)
3-Index Derivative        :    0.000 sec (  0.0%)
2-Index Derivative        :    0.000 sec (  0.0%)
Separable Gradient        :    0.000 sec (  0.0%)


---------------------------------------
MP2 TOTAL ENERGY:    -2310.326643888 Eh
---------------------------------------

-------------------------   --------------------
FINAL SINGLE POINT ENERGY     -2310.326643888080
-------------------------   --------------------


                            ***************************************
                            *     ORCA property calculations      *
                            ***************************************


  WARNING: The energy has been calculated at the MP2 level but the densities
           used in the property calculations are still SCF densities
           MP2 response densities have not been calculated 
           use %mp2 Density relaxed end
           or  %mp2 Density unrelaxed end

                                    ---------------------
                                    Active property flags
                                    ---------------------
   (+) Dipole Moment


------------------------------------------------------------------------------
                       ORCA ELECTRIC PROPERTIES CALCULATION
------------------------------------------------------------------------------

Dipole Moment Calculation                       ... on
Quadrupole Moment Calculation                   ... off
Polarizability Calculation                      ... off
GBWName                                         ... input.gbw
Electron density file                           ... input.scfp
The origin for moment calculation is the CENTER OF MASS  = (-0.093252, -0.413569  0.395203)

-------------
DIPOLE MOMENT
-------------
                                X             Y             Z
Electronic contribution:      2.68561      10.24421       1.85974
Nuclear contribution   :     -2.36967     -13.82156      -1.16157
                        -----------------------------------------
Total Dipole Moment    :      0.31595      -3.57735       0.69817
                        -----------------------------------------
Magnitude (a.u.)       :      3.65851
Magnitude (Debye)      :      9.29920



--------------------
Rotational spectrum 
--------------------
 
Rotational constants in cm-1:     0.001533     0.001485     0.001306 
Rotational constants in MHz :    45.966777    44.524473    39.147098 

 Dipole components along the rotational axes: 
x,y,z [a.u.] :     1.544084     1.180055    -3.099677 
x,y,z [Debye]:     3.924749     2.999461    -7.878754 

 

Timings for individual modules:

Sum of individual times         ...     5683.837 sec (=  94.731 min)
GTO integral calculation        ...        5.949 sec (=   0.099 min)   0.1 %
SCF iterations                  ...     1220.381 sec (=  20.340 min)  21.5 %
MP2 module                      ...     4457.508 sec (=  74.292 min)  78.4 %
                             ****ORCA TERMINATED NORMALLY****
TOTAL RUN TIME: 0 days 1 hours 34 minutes 46 seconds 189 msec
