 3
 energy=-2076.5795036343588 cutoff=6.00000000 nneightol=1.20000000 pbc="T T T" Lattice="200.00000000       0.00000000       0.00000000       0.00000000     200.00000000       0.00000000       0.00000000       0.00000000     200.00000000" Properties=species:S:1:pos:R:3:forces:R:3:Z:I:1:map_shift:I:3:n_neighb:I:1:force:R:3
 O               0.03224938      0.00158935     -0.05774662     -0.05692371      0.02663046      0.49341633       8       0       0       0       2     -0.05786254      0.02654466      0.49455443
 H              -0.91201111     -0.16148108      0.08327231      0.32567601      0.06059474      0.00921432       1       0       0       0       2      0.32718228      0.06086317      0.00912098
 H               0.40006589      0.13625077      0.83343060     -0.26875229     -0.08722520     -0.50263065       1       0       0       0       2     -0.26931974     -0.08740783     -0.50367542
 3
 energy=-2076.5711321775925 cutoff=6.00000000 nneightol=1.20000000 pbc="T T T" Lattice="200.00000000       0.00000000       0.00000000       0.00000000     200.00000000       0.00000000       0.00000000       0.00000000     200.00000000" Properties=species:S:1:pos:R:3:forces:R:3:Z:I:1:map_shift:I:3:n_neighb:I:1:force:R:3
 O              -0.06071743      0.01269842     -0.00606408     -0.94847334      0.09705709      0.15025374       8       0       0       0       2     -0.94638586      0.09669138      0.15027094
 H               0.35856708     -0.37427177      0.75948159      0.34826469     -0.10492570      0.11239013       1       0       0       0       2      0.34763663     -0.10403088      0.11046758
 H               0.60529627      0.17268975     -0.66321698      0.60020865      0.00786860     -0.26264386       1       0       0       0       2      0.59874924      0.00733950     -0.26073852
 3
 energy=-2076.5715205120159 cutoff=6.00000000 nneightol=1.20000000 pbc="T T T" Lattice="200.00000000       0.00000000       0.00000000       0.00000000     200.00000000       0.00000000       0.00000000       0.00000000     200.00000000" Properties=species:S:1:pos:R:3:forces:R:3:Z:I:1:map_shift:I:3:n_neighb:I:1:force:R:3
 O              -0.02046079     -0.01850430     -0.06273340     -0.10209029      0.39415426      0.08594324       8       0       0       0       2     -0.10119211      0.39503518      0.08876386
 H              -0.11879714      0.82234582      0.39828228     -0.15544685      0.14075505     -0.24587050       1       0       0       0       2     -0.15524912      0.13874199     -0.24707014
 H               0.44360342     -0.52859790      0.59758373      0.25753714     -0.53490880      0.15992726       1       0       0       0       2      0.25644122     -0.53377717      0.15830628
 3
 energy=-2076.5681589602827 cutoff=6.00000000 nneightol=1.20000000 pbc="T T T" Lattice="200.00000000       0.00000000       0.00000000       0.00000000     200.00000000       0.00000000       0.00000000       0.00000000     200.00000000" Properties=species:S:1:pos:R:3:forces:R:3:Z:I:1:map_shift:I:3:n_neighb:I:1:force:R:3
 O               0.05857608      0.00185263     -0.02428959     -0.19527427     -0.33990089     -0.96320114       8       0       0       0       2     -0.19629122     -0.33938914     -0.96115836
 H              -0.75813417     -0.27817323     -0.48102661      0.55698635      0.28482323      0.60510455       1       0       0       0       2      0.55753573      0.28505236      0.60558618
 H              -0.17173612      0.24876348      0.86661348     -0.36171208      0.05507766      0.35809659       1       0       0       0       2     -0.36124451      0.05433678      0.35557218
 3
 energy=-2076.5725988630243 cutoff=6.00000000 nneightol=1.20000000 pbc="T T T" Lattice="200.00000000       0.00000000       0.00000000       0.00000000     200.00000000       0.00000000       0.00000000       0.00000000     200.00000000" Properties=species:S:1:pos:R:3:forces:R:3:Z:I:1:map_shift:I:3:n_neighb:I:1:force:R:3
 O               0.02643851      0.00037458      0.05647137      0.27321007      0.00458119      0.55571828       8       0       0       0       2      0.27234192      0.00458321      0.55389911
 H              -0.91338406     -0.06069830     -0.11822012     -0.05603308      0.00444081     -0.32033685       1       0       0       0       2     -0.05380876      0.00458793     -0.32025363
 H               0.49368403      0.05475200     -0.77823878     -0.21717699     -0.00902200     -0.23538194       1       0       0       0       2     -0.21853316     -0.00917114     -0.23364548
 3
 energy=-2076.5787243908499 cutoff=6.00000000 nneightol=1.20000000 pbc="T T T" Lattice="200.00000000       0.00000000       0.00000000       0.00000000     200.00000000       0.00000000       0.00000000       0.00000000     200.00000000" Properties=species:S:1:pos:R:3:forces:R:3:Z:I:1:map_shift:I:3:n_neighb:I:1:force:R:3
 O              -0.02915314     -0.05694501     -0.01188280      0.18646978     -0.49197394      0.64882667       8       0       0       0       2      0.18732082     -0.48959178      0.64871687
 H               0.51264749      0.18795642      0.75316249     -0.20405407     -0.04655805     -0.31867900       1       0       0       0       2     -0.20501117     -0.04693065     -0.32008500
 H              -0.04985391      0.71602138     -0.56452809      0.01758429      0.53853200     -0.33014767       1       0       0       0       2      0.01769035      0.53652243     -0.32863187
 3
 energy=-2076.5810548001919 cutoff=6.00000000 nneightol=1.20000000 pbc="T T T" Lattice="200.00000000       0.00000000       0.00000000       0.00000000     200.00000000       0.00000000       0.00000000       0.00000000     200.00000000" Properties=species:S:1:pos:R:3:forces:R:3:Z:I:1:map_shift:I:3:n_neighb:I:1:force:R:3
 O               0.01243080     -0.01992137     -0.06283918      0.05342496      0.11002523      0.00393996       8       0       0       0       2      0.05286366      0.11083608      0.00659822
 H              -0.46416779     -0.48367412      0.62752638     -0.14963462     -0.24109339      0.08296488       1       0       0       0       2     -0.14848645     -0.24001761      0.08131338
 H               0.26683414      0.79991738      0.37001881      0.09620966      0.13106816     -0.08690535       1       0       0       0       2      0.09562279      0.12918153     -0.08791160
 3
 energy=-2076.5781381389993 cutoff=6.00000000 nneightol=1.20000000 pbc="T T T" Lattice="200.00000000       0.00000000       0.00000000       0.00000000     200.00000000       0.00000000       0.00000000       0.00000000     200.00000000" Properties=species:S:1:pos:R:3:forces:R:3:Z:I:1:map_shift:I:3:n_neighb:I:1:force:R:3
 O              -0.00120678      0.00187771     -0.06627798      0.06591023     -0.15913998     -0.38926659       8       0       0       0       2      0.06595680     -0.15922326     -0.38608017
 H               0.30398193     -0.70158114      0.50459596      0.15055301     -0.34948751      0.10782025       1       0       0       0       2      0.14972347     -0.34756561      0.10629021
 H              -0.28482481      0.67177332      0.54753864     -0.21646325      0.50862698      0.28144634       1       0       0       0       2     -0.21568027      0.50678887      0.27978996
 3
 energy=-2076.5745959188162 cutoff=6.00000000 nneightol=1.20000000 pbc="T T T" Lattice="200.00000000       0.00000000       0.00000000       0.00000000     200.00000000       0.00000000       0.00000000       0.00000000     200.00000000" Properties=species:S:1:pos:R:3:forces:R:3:Z:I:1:map_shift:I:3:n_neighb:I:1:force:R:3
 O               0.01847930     -0.03851693      0.05243058     -0.67056638     -0.43295169     -0.30362159       8       0       0       0       2     -0.67111278     -0.43130543     -0.30563113
 H              -0.70865385     -0.15998099     -0.58078424      0.26696435     -0.10912791      0.36674218       1       0       0       0       2      0.26831686     -0.10898692      0.36800125
 H               0.41530289      0.77142080     -0.25152887      0.40360203      0.54208012     -0.06312110       1       0       0       0       2      0.40279592      0.54029235     -0.06237011
 3
 energy=-2076.5681135375894 cutoff=6.00000000 nneightol=1.20000000 pbc="T T T" Lattice="200.00000000       0.00000000       0.00000000       0.00000000     200.00000000       0.00000000       0.00000000       0.00000000     200.00000000" Properties=species:S:1:pos:R:3:forces:R:3:Z:I:1:map_shift:I:3:n_neighb:I:1:force:R:3
 O               0.00963740     -0.05454528      0.03544802     -0.40640094      0.46607470     -0.48391867       8       0       0       0       2     -0.40590726      0.46675684     -0.48405128
 H              -0.77010169      0.16390980     -0.52061940      0.87699461     -0.08554986      0.53713177       1       0       0       0       2      0.87734074     -0.08546219      0.53729961
 H               0.61711205      0.70197324     -0.04210286     -0.47059367     -0.38052535     -0.05321310       1       0       0       0       2     -0.47143348     -0.38129464     -0.05324833
 3
 energy=-2076.5784350755189 cutoff=6.00000000 nneightol=1.20000000 pbc="T T T" Lattice="200.00000000       0.00000000       0.00000000       0.00000000     200.00000000       0.00000000       0.00000000       0.00000000     200.00000000" Properties=species:S:1:pos:R:3:forces:R:3:Z:I:1:map_shift:I:3:n_neighb:I:1:force:R:3
 O              -0.03444657      0.05049538      0.01755774     -0.12978724      0.30575355      0.45595227       8       0       0       0       2     -0.12866016      0.30399486      0.45493854
 H               0.51231882     -0.49929494      0.58821764     -0.01300104     -0.04633180     -0.21405310       1       0       0       0       2     -0.01408499     -0.04532016     -0.21541131
 H               0.03450575     -0.30229772     -0.86693930      0.14278828     -0.25942227     -0.24189917       1       0       0       0       2      0.14274515     -0.25867470     -0.23952723
 3
 energy=-2076.5703125077416 cutoff=6.00000000 nneightol=1.20000000 pbc="T T T" Lattice="200.00000000       0.00000000       0.00000000       0.00000000     200.00000000       0.00000000       0.00000000       0.00000000     200.00000000" Properties=species:S:1:pos:R:3:forces:R:3:Z:I:1:map_shift:I:3:n_neighb:I:1:force:R:3
 O               0.03238786     -0.04768611      0.02889021      0.31850623     -1.03522905      0.09976395       8       0       0       0       2      0.31710207     -1.03324984      0.09849995
 H               0.00535880      0.85780754      0.28657262     -0.02118898      1.08207918      0.32317895       1       0       0       0       2     -0.02122296      1.07979369      0.32238042
 H              -0.51950233     -0.10081095     -0.74519244     -0.29731725     -0.04684962     -0.42294290       1       0       0       0       2     -0.29587911     -0.04654385     -0.42088037
 3
 energy=-2076.5685569907555 cutoff=6.00000000 nneightol=1.20000000 pbc="T T T" Lattice="200.00000000       0.00000000       0.00000000       0.00000000     200.00000000       0.00000000       0.00000000       0.00000000     200.00000000" Properties=species:S:1:pos:R:3:forces:R:3:Z:I:1:map_shift:I:3:n_neighb:I:1:force:R:3
 O              -0.04227189      0.03670041     -0.04143852      0.64453139     -0.55878355      0.62984473       8       0       0       0       2      0.64493451     -0.55915111      0.63023457
 H              -0.17529360     -0.26024460      0.87745602     -0.16963780      0.26983473     -0.47810181       1       0       0       0       2     -0.16954408      0.26998944     -0.47860116
 H               0.84634179     -0.32235875     -0.21963720     -0.47489359      0.28894831     -0.15174292       1       0       0       0       2     -0.47539043      0.28916167     -0.15163341
 3
 energy=-2076.5758760589883 cutoff=6.00000000 nneightol=1.20000000 pbc="T T T" Lattice="200.00000000       0.00000000       0.00000000       0.00000000     200.00000000       0.00000000       0.00000000       0.00000000     200.00000000" Properties=species:S:1:pos:R:3:forces:R:3:Z:I:1:map_shift:I:3:n_neighb:I:1:force:R:3
 O              -0.01306335      0.03262386     -0.05852842      0.24505700     -0.23839270      0.75582365       8       0       0       0       2      0.24520006     -0.23905187      0.75675242
 H               0.47562282      0.34820452      0.72444223     -0.27504481     -0.07113215     -0.53817050       1       0       0       0       2     -0.27547921     -0.07144530     -0.53884919
 H              -0.26824764     -0.86609439      0.20467145      0.02998781      0.30952485     -0.21765315       1       0       0       0       2      0.03027915      0.31049717     -0.21790324
 3
 energy=-2076.5793517968777 cutoff=6.00000000 nneightol=1.20000000 pbc="T T T" Lattice="200.00000000       0.00000000       0.00000000       0.00000000     200.00000000       0.00000000       0.00000000       0.00000000     200.00000000" Properties=species:S:1:pos:R:3:forces:R:3:Z:I:1:map_shift:I:3:n_neighb:I:1:force:R:3
 O               0.04237153      0.00238533     -0.04898092      0.34071747      0.29492818      0.32084182       8       0       0       0       2      0.33894974      0.29445787      0.32194196
 H               0.14004797      0.39265989      0.83542770     -0.17198007     -0.25847199     -0.44602061       1       0       0       0       2     -0.17225502     -0.25908688     -0.44728214
 H              -0.81267790     -0.43052593     -0.05787649     -0.16873740     -0.03645619      0.12517879       1       0       0       0       2     -0.16669472     -0.03537100      0.12534019
 3
 energy=-2076.5713287306080 cutoff=6.00000000 nneightol=1.20000000 pbc="T T T" Lattice="200.00000000       0.00000000       0.00000000       0.00000000     200.00000000       0.00000000       0.00000000       0.00000000     200.00000000" Properties=species:S:1:pos:R:3:forces:R:3:Z:I:1:map_shift:I:3:n_neighb:I:1:force:R:3
 O               0.05796772     -0.02375178     -0.00429669      0.93026016      0.03003717      0.54086553       8       0       0       0       2      0.92811909      0.03061640      0.54054566
 H              -0.64620022     -0.18246730     -0.61532705     -0.74934036     -0.00920352     -0.41343908       1       0       0       0       2     -0.74760902     -0.00861742     -0.41162227
 H              -0.27401256      0.55951661      0.68353516     -0.18091980     -0.02083416     -0.12742697       1       0       0       0       2     -0.18051007     -0.02199898     -0.12892339
 3
 energy=-2076.5753182497792 cutoff=6.00000000 nneightol=1.20000000 pbc="T T T" Lattice="200.00000000       0.00000000       0.00000000       0.00000000     200.00000000       0.00000000       0.00000000       0.00000000     200.00000000" Properties=species:S:1:pos:R:3:forces:R:3:Z:I:1:map_shift:I:3:n_neighb:I:1:force:R:3
 O              -0.03648741     -0.02928460     -0.04765149     -0.36169099     -0.35388872      0.00698260       8       0       0       0       2     -0.35989484     -0.35246075      0.00936051
 H              -0.05407604     -0.17210201      0.89926684     -0.14483539     -0.17622959      0.26285624       1       0       0       0       2     -0.14480180     -0.17584291      0.26023235
 H               0.63329817      0.63698257     -0.14281969      0.50652639      0.53011780     -0.26983884       1       0       0       0       2      0.50469663      0.52830366     -0.26959286
 3
 energy=-2076.5725128575350 cutoff=6.00000000 nneightol=1.20000000 pbc="T T T" Lattice="200.00000000       0.00000000       0.00000000       0.00000000     200.00000000       0.00000000       0.00000000       0.00000000     200.00000000" Properties=species:S:1:pos:R:3:forces:R:3:Z:I:1:map_shift:I:3:n_neighb:I:1:force:R:3
 O               0.02880763      0.01320072     -0.05695926     -0.84916807      0.47586392     -0.04072319       8       0       0       0       2     -0.84879164      0.47475772     -0.03896902
 H               0.38874621     -0.53199697      0.64325397     -0.03199790     -0.10233917      0.23756892       1       0       0       0       2     -0.03293670     -0.10100794      0.23594029
 H              -0.84605507      0.32244117      0.26094994      0.88116597     -0.37352475     -0.19684573       1       0       0       0       2      0.88172833     -0.37374977     -0.19697127
 3
 energy=-2076.5759044042111 cutoff=6.00000000 nneightol=1.20000000 pbc="T T T" Lattice="200.00000000       0.00000000       0.00000000       0.00000000     200.00000000       0.00000000       0.00000000       0.00000000     200.00000000" Properties=species:S:1:pos:R:3:forces:R:3:Z:I:1:map_shift:I:3:n_neighb:I:1:force:R:3
 O              -0.05939130     -0.01416777     -0.01776133     -0.76544112     -0.13633584     -0.35126311       8       0       0       0       2     -0.76308407     -0.13579718     -0.35050667
 H               0.60572651      0.41872813     -0.54423965      0.40340252      0.20672339     -0.17163503       1       0       0       0       2      0.40187089      0.20560801     -0.17010187
 H               0.33708500     -0.19382084      0.82619314      0.36203861     -0.07038755      0.52289814       1       0       0       0       2      0.36121317     -0.06981083      0.52060854
 3
 energy=-2076.5776545023255 cutoff=6.00000000 nneightol=1.20000000 pbc="T T T" Lattice="200.00000000       0.00000000       0.00000000       0.00000000     200.00000000       0.00000000       0.00000000       0.00000000     200.00000000" Properties=species:S:1:pos:R:3:forces:R:3:Z:I:1:map_shift:I:3:n_neighb:I:1:force:R:3
 O               0.03420953      0.00024169      0.05353759      0.16383739     -0.02474533      0.18503768       8       0       0       0       2      0.16270953     -0.02471910      0.18337744
 H               0.27366749     -0.43394371     -0.77244250     -0.23673280      0.14231057      0.02616663       1       0       0       0       2     -0.23743744      0.14329579      0.02777675
 H              -0.81672912      0.43010699     -0.07744390      0.07289541     -0.11756524     -0.21120431       1       0       0       0       2      0.07472791     -0.11857669     -0.21115419
 3
 energy=-2076.5715868710977 cutoff=6.00000000 nneightol=1.20000000 pbc="T T T" Lattice="200.00000000       0.00000000       0.00000000       0.00000000     200.00000000       0.00000000       0.00000000       0.00000000     200.00000000" Properties=species:S:1:pos:R:3:forces:R:3:Z:I:1:map_shift:I:3:n_neighb:I:1:force:R:3
 O              -0.04709362     -0.01667728     -0.03723755     -0.71577820     -0.41717232     -0.19450654       8       0       0       0       2     -0.71406711     -0.41638004     -0.19353861
 H               0.09240687     -0.31550964      0.86339294      0.24015339      0.14360126      0.05702296       1       0       0       0       2      0.24014022      0.14441620      0.05512840
 H               0.65518419      0.58025439     -0.27226273      0.47562430      0.27357054      0.13748410       1       0       0       0       2      0.47392688      0.27196384      0.13841021
 3
 energy=-2076.5788916637634 cutoff=6.00000000 nneightol=1.20000000 pbc="T T T" Lattice="200.00000000       0.00000000       0.00000000       0.00000000     200.00000000       0.00000000       0.00000000       0.00000000     200.00000000" Properties=species:S:1:pos:R:3:forces:R:3:Z:I:1:map_shift:I:3:n_neighb:I:1:force:R:3
 O               0.02766947     -0.04274907     -0.04179092      0.32975943     -0.38026361     -0.08989863       8       0       0       0       2      0.32842532     -0.37824894     -0.08796698
 H              -0.63881309      0.60905869     -0.22907362     -0.45132017      0.41256181     -0.21785987       1       0       0       0       2     -0.44950941      0.41080916     -0.21731029
 H               0.19957209      0.06956458      0.89248662      0.12156074     -0.03229820      0.30775901       1       0       0       0       2      0.12108409     -0.03256022      0.30527727
 3
 energy=-2076.5704491969191 cutoff=6.00000000 nneightol=1.20000000 pbc="T T T" Lattice="200.00000000       0.00000000       0.00000000       0.00000000     200.00000000       0.00000000       0.00000000       0.00000000     200.00000000" Properties=species:S:1:pos:R:3:forces:R:3:Z:I:1:map_shift:I:3:n_neighb:I:1:force:R:3
 O              -0.05035702     -0.03216655     -0.03014977      0.83397080      0.56027942     -0.29345031       8       0       0       0       2      0.83423580      0.56041828     -0.29222273
 H               0.10914417      0.03998178      0.92038112     -0.00758990      0.00191650     -0.19894735       1       0       0       0       2     -0.00774216      0.00186057     -0.20033551
 H               0.69025197      0.47064847     -0.44176633     -0.82638090     -0.56219592      0.49239817       1       0       0       0       2     -0.82649365     -0.56227885      0.49255824
 3
 energy=-2076.5835776446779 cutoff=6.00000000 nneightol=1.20000000 pbc="T T T" Lattice="200.00000000       0.00000000       0.00000000       0.00000000     200.00000000       0.00000000       0.00000000       0.00000000     200.00000000" Properties=species:S:1:pos:R:3:forces:R:3:Z:I:1:map_shift:I:3:n_neighb:I:1:force:R:3
 O               0.02726443      0.04868320     -0.03466955     -0.03964127      0.17181038     -0.06871839       8       0       0       0       2     -0.04067604      0.16979090     -0.06732479
 H               0.42698461     -0.78511884      0.21701131      0.09695631     -0.17964196      0.04994471       1       0       0       0       2      0.09591850     -0.17763836      0.04937246
 H              -0.85979584      0.01229385      0.33335302     -0.05731452      0.00783210      0.01877368       1       0       0       0       2     -0.05524246      0.00784746      0.01795232
 3
 energy=-2076.5737391416651 cutoff=6.00000000 nneightol=1.20000000 pbc="T T T" Lattice="200.00000000       0.00000000       0.00000000       0.00000000     200.00000000       0.00000000       0.00000000       0.00000000     200.00000000" Properties=species:S:1:pos:R:3:forces:R:3:Z:I:1:map_shift:I:3:n_neighb:I:1:force:R:3
 O              -0.03628735      0.05216617      0.02462877      0.86470782      0.01451953     -0.45404091       8       0       0       0       2      0.86526948      0.01294562     -0.45451601
 H               0.82999035      0.05432469     -0.43155784     -0.67336425      0.16074024      0.37173886       1       0       0       0       2     -0.67421416      0.16079252      0.37220621
 H              -0.25394409     -0.88244041      0.04058656     -0.19134357     -0.17525977      0.08230205       1       0       0       0       2     -0.19105532     -0.17373815      0.08230981
 3
 energy=-2076.5737444417587 cutoff=6.00000000 nneightol=1.20000000 pbc="T T T" Lattice="200.00000000       0.00000000       0.00000000       0.00000000     200.00000000       0.00000000       0.00000000       0.00000000     200.00000000" Properties=species:S:1:pos:R:3:forces:R:3:Z:I:1:map_shift:I:3:n_neighb:I:1:force:R:3
 O              -0.00518414      0.02795926     -0.05594632      0.38447354      0.37159025     -0.64796587       8       0       0       0       2      0.38421826      0.37057103     -0.64601049
 H               0.80892394     -0.13104366      0.42765604     -0.12358985     -0.10389006      0.17777534       1       0       0       0       2     -0.12545750     -0.10369141      0.17697935
 H              -0.72662792     -0.31279765      0.46046787     -0.26088369     -0.26770020      0.47019053       1       0       0       0       2     -0.25876076     -0.26687962      0.46903113
 3
 energy=-2076.5736077720817 cutoff=6.00000000 nneightol=1.20000000 pbc="T T T" Lattice="200.00000000       0.00000000       0.00000000       0.00000000     200.00000000       0.00000000       0.00000000       0.00000000     200.00000000" Properties=species:S:1:pos:R:3:forces:R:3:Z:I:1:map_shift:I:3:n_neighb:I:1:force:R:3
 O              -0.03103763     -0.05297201     -0.01774742     -0.19422218      0.12751593     -0.93463926       8       0       0       0       2     -0.19315349      0.12876881     -0.93297792
 H               0.19385255      0.71264870     -0.57420250     -0.05989951     -0.40249954      0.50453738       1       0       0       0       2     -0.06010968     -0.40339493      0.50535213
 H               0.29885656      0.12825932      0.85593528      0.25412168      0.27498362      0.43010188       1       0       0       0       2      0.25326317      0.27462612      0.42762578
 3
 energy=-2076.5761284626960 cutoff=6.00000000 nneightol=1.20000000 pbc="T T T" Lattice="200.00000000       0.00000000       0.00000000       0.00000000     200.00000000       0.00000000       0.00000000       0.00000000     200.00000000" Properties=species:S:1:pos:R:3:forces:R:3:Z:I:1:map_shift:I:3:n_neighb:I:1:force:R:3
 O               0.06039177     -0.02056451     -0.00979020      0.81821096     -0.06932826      0.20807579       8       0       0       0       2      0.81558538     -0.06846897      0.20843294
 H              -0.69211064     -0.17839572     -0.56188067     -0.67903354     -0.13327674     -0.48330418       1       0       0       0       2     -0.67710608     -0.13276981     -0.48171976
 H              -0.26658287      0.50484861      0.71729598     -0.13917742      0.20260500      0.27522839       1       0       0       0       2     -0.13847931      0.20123878      0.27328681
 3
 energy=-2076.5811143119172 cutoff=6.00000000 nneightol=1.20000000 pbc="T T T" Lattice="200.00000000       0.00000000       0.00000000       0.00000000     200.00000000       0.00000000       0.00000000       0.00000000     200.00000000" Properties=species:S:1:pos:R:3:forces:R:3:Z:I:1:map_shift:I:3:n_neighb:I:1:force:R:3
 O               0.00245834     -0.05433179      0.03392579      0.00361754     -0.26197743      0.16320079       8       0       0       0       2      0.00353932     -0.26000956      0.16197205
 H               0.74983460      0.47228375     -0.25900931     -0.05492442      0.13075552     -0.08392596       1       0       0       0       2     -0.05678756      0.12966586     -0.08333577
 H              -0.78885971      0.39021019     -0.27954818      0.05130688      0.13122192     -0.07927483       1       0       0       0       2      0.05324825      0.13034369     -0.07863628
 3
 energy=-2076.5805139405279 cutoff=6.00000000 nneightol=1.20000000 pbc="T T T" Lattice="200.00000000       0.00000000       0.00000000       0.00000000     200.00000000       0.00000000       0.00000000       0.00000000     200.00000000" Properties=species:S:1:pos:R:3:forces:R:3:Z:I:1:map_shift:I:3:n_neighb:I:1:force:R:3
 O              -0.02728506      0.02295570     -0.05364752     -0.35271116      0.22608637     -0.38075984       8       0       0       0       2     -0.35150653      0.22511399     -0.37857429
 H               0.84820873     -0.34406447      0.03209602      0.40361643     -0.18492095      0.10908472       1       0       0       0       2      0.40129433     -0.18398391      0.10903369
 H              -0.41507002     -0.02034744      0.81953555     -0.05090528     -0.04116542      0.27167564       1       0       0       0       2     -0.04978780     -0.04113008      0.26954060
 3
 energy=-2076.5718189487543 cutoff=6.00000000 nneightol=1.20000000 pbc="T T T" Lattice="200.00000000       0.00000000       0.00000000       0.00000000     200.00000000       0.00000000       0.00000000       0.00000000     200.00000000" Properties=species:S:1:pos:R:3:forces:R:3:Z:I:1:map_shift:I:3:n_neighb:I:1:force:R:3
 O               0.01319116      0.04781685      0.04250757      0.34981764      0.29202592     -0.89460718       8       0       0       0       2      0.34891208      0.29017430     -0.89455340
 H              -0.43187391     -0.77704613      0.24161962     -0.07871741     -0.20499716     -0.08720463       1       0       0       0       2     -0.07767164     -0.20308946     -0.08775312
 H               0.22246980      0.01797407     -0.91640909     -0.27109971     -0.08702876      0.98181181       1       0       0       0       2     -0.27124044     -0.08708484      0.98230652
 3
 energy=-2076.5801555932990 cutoff=6.00000000 nneightol=1.20000000 pbc="T T T" Lattice="200.00000000       0.00000000       0.00000000       0.00000000     200.00000000       0.00000000       0.00000000       0.00000000     200.00000000" Properties=species:S:1:pos:R:3:forces:R:3:Z:I:1:map_shift:I:3:n_neighb:I:1:force:R:3
 O              -0.03674519     -0.04319217     -0.02986137      0.06965839     -0.23758229     -0.20004470       8       0       0       0       2      0.07064618     -0.23600311     -0.19891068
 H              -0.33940280      0.64665086      0.56422383      0.13799317      0.11871093      0.07719121       1       0       0       0       2      0.13891020      0.11713237      0.07580983
 H               0.92271703      0.03900648     -0.09018738     -0.20765105      0.11887136      0.12285297       1       0       0       0       2     -0.20955637      0.11887074      0.12310085
 3
 energy=-2076.5754968552596 cutoff=6.00000000 nneightol=1.20000000 pbc="T T T" Lattice="200.00000000       0.00000000       0.00000000       0.00000000     200.00000000       0.00000000       0.00000000       0.00000000     200.00000000" Properties=species:S:1:pos:R:3:forces:R:3:Z:I:1:map_shift:I:3:n_neighb:I:1:force:R:3
 O               0.02739462      0.05132241      0.02871020     -0.00561632      0.25278060      0.93883273       8       0       0       0       2     -0.00671672      0.25064987      0.93742073
 H              -0.48813178     -0.65073474      0.43475828     -0.02037034     -0.02816027      0.01456067       1       0       0       0       2     -0.01915201     -0.02652017      0.01351165