
                                 *****************
                                 * O   R   C   A *
                                 *****************

           --- An Ab Initio, DFT and Semiempirical electronic structure package ---

                  #######################################################
                  #                        -***-                        #
                  #          Department of theory and spectroscopy      #
                  #               Directorship: Frank Neese             #
                  #        Max Planck Institute fuer Kohlenforschung    #
                  #                Kaiser Wilhelm Platz 1               #
                  #                 D-45470 Muelheim/Ruhr               #
                  #                      Germany                        #
                  #                                                     #
                  #                  All rights reserved                #
                  #                        -***-                        #
                  #######################################################


                         Program Version 4.2.0 -  RELEASE  -


 With contributions from (in alphabetic order):
   Daniel Aravena         : Magnetic Suceptibility
   Michael Atanasov       : Ab Initio Ligand Field Theory (pilot matlab implementation)
   Alexander A. Auer      : GIAO ZORA, VPT2
   Ute Becker             : Parallelization
   Giovanni Bistoni       : ED, misc. LED, open-shell LED, HFLED
   Martin Brehm           : Molecular dynamics
   Dmytro Bykov           : SCF Hessian
   Vijay G. Chilkuri      : MRCI spin determinant printing, contributions to CSF-ICE
   Dipayan Datta          : RHF DLPNO-CCSD density
   Achintya Kumar Dutta   : EOM-CC, STEOM-CC
   Dmitry Ganyushin       : Spin-Orbit,Spin-Spin,Magnetic field MRCI
   Miquel Garcia          : C-PCM Hessian, Gaussian charge scheme
   Yang Guo               : DLPNO-NEVPT2, CIM, IAO-localization
   Andreas Hansen         : Spin unrestricted coupled pair/coupled cluster methods
   Benjamin Helmich-Paris : CASSCF linear response (MC-RPA)
   Lee Huntington         : MR-EOM, pCC
   Robert Izsak           : Overlap fitted RIJCOSX, COSX-SCS-MP3, EOM
   Christian Kollmar      : KDIIS, OOCD, Brueckner-CCSD(T), CCSD density
   Simone Kossmann        : Meta GGA functionals, TD-DFT gradient, OOMP2, MP2 Hessian
   Martin Krupicka        : AUTO-CI
   Lucas Lang             : DCDCAS
   Dagmar Lenk            : GEPOL surface, SMD
   Dimitrios Liakos       : Extrapolation schemes; Compound Job, initial MDCI parallelization
   Dimitrios Manganas     : Further ROCIS development; embedding schemes
   Dimitrios Pantazis     : SARC Basis sets
   Taras Petrenko         : DFT Hessian,TD-DFT gradient, ASA, ECA, R-Raman, ABS, FL, XAS/XES, NRVS
   Peter Pinski           : DLPNO-MP2, DLPNO-MP2 Gradient
   Christoph Reimann      : Effective Core Potentials
   Marius Retegan         : Local ZFS, SOC
   Christoph Riplinger    : Optimizer, TS searches, QM/MM, DLPNO-CCSD(T), (RO)-DLPNO pert. Triples
   Tobias Risthaus        : Range-separated hybrids, TD-DFT gradient, RPA, STAB
   Michael Roemelt        : Original ROCIS implementation
   Masaaki Saitow         : Open-shell DLPNO-CCSD energy and density
   Barbara Sandhoefer     : DKH picture change effects
   Avijit Sen             : IP-ROCIS
   Kantharuban Sivalingam : CASSCF convergence, NEVPT2, FIC-MRCI
   Bernardo de Souza      : ESD, SOC TD-DFT
   Georgi Stoychev        : AutoAux, RI-MP2 NMR
   Willem Van den Heuvel  : Paramagnetic NMR
   Boris Wezisla          : Elementary symmetry handling
   Frank Wennmohs         : Technical directorship


 We gratefully acknowledge several colleagues who have allowed us to
 interface, adapt or use parts of their codes:
   Stefan Grimme, W. Hujo, H. Kruse,             : VdW corrections, initial TS optimization,
                  C. Bannwarth                     DFT functionals, gCP, sTDA/sTD-DF
   Ed Valeev, F. Pavosevic, A. Kumar             : LibInt (2-el integral package), F12 methods
   Garnet Chan, S. Sharma, J. Yang, R. Olivares  : DMRG
   Ulf Ekstrom                                   : XCFun DFT Library
   Mihaly Kallay                                 : mrcc  (arbitrary order and MRCC methods)
   Andreas Klamt, Michael Diedenhofen            : otool_cosmo (COSMO solvation model)
   Jiri Pittner, Ondrej Demel                    : Mk-CCSD
   Frank Weinhold                                : gennbo (NPA and NBO analysis)
   Christopher J. Cramer and Donald G. Truhlar   : smd solvation model
   Lars Goerigk                                  : TD-DFT with DH, B97 family of functionals
   V. Asgeirsson, H. Jonsson                     : NEB implementation
   FAccTs GmbH                                   : IRC, NEB, NEB-TS, Multilevel, MM, QM/MM, CI optimization
   S Lehtola, MJT Oliveira, MAL Marques          : LibXC Library


 Your calculation uses the libint2 library for the computation of 2-el integrals
 For citations please refer to: http://libint.valeyev.net

 Your ORCA version has been built with support for libXC version: 4.2.3
 For citations please refer to: https://tddft.org/programs/libxc/

 This ORCA versions uses:
   CBLAS   interface :  Fast vector & matrix operations
   LAPACKE interface :  Fast linear algebra routines
   SCALAPACK package :  Parallel linear algebra routines


----- Orbital basis set information -----
Your calculation utilizes the basis: def2-TZVP
   F. Weigend and R. Ahlrichs, Phys. Chem. Chem. Phys. 7, 3297 (2005).

----- AuxC basis set information -----
Your calculation utilizes the auxiliary basis: def2-TZVP/C
  H-La, Hf-Rn : A. Hellweg, C. Hattig, S. Hofener and W. Klopper, Theor. Chem. Acc. 117, 587 (2007).
        Ce-Lu : J. Chmela and M. E. Harding, Mol. Phys. (2018).

================================================================================
                                        WARNINGS
                       Please study these warnings very carefully!
================================================================================


WARNING: No MP2 level density has been requested!
         To caclulate MP2 level properties use
         %mp2 Density relaxed end
         or
         %mp2 Density unrelaxed end

INFO   : the flag for use of LIBINT has been found!

================================================================================
                                       INPUT FILE
================================================================================
NAME = input.inp
|  1> ! RI-MP2 def2-TZVP def2-TZVP/C TightSCF FrozenCore
|  2> 
|  3> %pal nprocs 24 end
|  4> %maxcore 8000
|  5> %scf ConvForced true end
|  6> 
|  7> *xyz  0  1
|  8> O     0.00000     0.00000     0.00000
|  9> H     0.07938     0.32993    -0.95720
| 10> C    -1.10074    -0.68898     0.29082
| 11> H    -1.53782    -0.32823     1.21678
| 12> H    -0.92164    -1.78574     0.38104
| 13> H    -1.84459    -0.62452    -0.51254
| 14> O     0.11192     1.29085    -2.79603
| 15> H     0.45514     2.21011    -2.55833
| 16> C     1.23804     0.45369    -2.90404
| 17> H     1.00442    -0.51965    -2.55018
| 18> H     1.96891     1.03058    -2.35721
| 19> H     1.52913     0.49481    -3.90650
| 20> O     0.60738     1.32524     3.02857
| 21> H     0.00715     1.10352     2.24369
| 22> C     1.07232     0.10038     3.57103
| 23> H     1.48362     0.28069     4.56337
| 24> H     1.89926    -0.33761     2.90227
| 25> H     0.21375    -0.52619     3.65339
| 26> O    -2.28658     2.26908     2.98672
| 27> H    -2.26719     2.71794     3.89051
| 28> C    -3.32626     2.69705     2.14699
| 29> H    -3.72800     1.88348     1.60038
| 30> H    -3.00787     3.45914     1.52105
| 31> H    -4.13928     3.12202     2.74459
| 32> O     1.54776     4.27049    -1.41013
| 33> H     1.39573     5.12757    -1.01688
| 34> C     1.91389     3.34608    -0.35610
| 35> H     2.33912     2.42277    -0.82760
| 36> H     0.99622     3.05647     0.26237
| 37> H     2.67976     3.73859     0.36998
| 38> O    -0.20106     4.54827     1.93448
| 39> H     0.12005     3.74660     2.35948
| 40> C    -0.97167     5.25054     2.89065
| 41> H    -1.36469     6.20718     2.43822
| 42> H    -0.38348     5.53247     3.78765
| 43> H    -1.87763     4.61867     3.06542
| 44> O    -4.43983     1.40935    -1.84039
| 45> H    -4.51646     1.98031    -2.60341
| 46> C    -3.91008     0.24274    -2.35388
| 47> H    -4.26812    -0.64992    -1.80846
| 48> H    -2.87193     0.34671    -2.29077
| 49> H    -4.18099     0.20547    -3.38977
| 50> O     2.89219     3.19684     2.78182
| 51> H     2.26750     2.49812     3.10905
| 52> C     3.98734     3.15245     3.63796
| 53> H     4.08352     4.05961     4.20113
| 54> H     4.85225     2.95991     3.00258
| 55> H     3.78917     2.31113     4.30166
| 56> O     4.62888    -1.73279    -1.56421
| 57> H     5.00771    -2.45466    -0.98660
| 58> C     3.41546    -1.57057    -1.05541
| 59> H     3.13857    -0.50430    -1.05321
| 60> H     3.52372    -1.92748    -0.00192
| 61> H     2.69649    -2.20576    -1.54980
| 62> O    -2.09795    -2.11934    -4.26273
| 63> H    -2.88247    -2.57756    -3.89259
| 64> C    -1.00823    -3.00751    -4.00972
| 65> H    -0.00491    -2.53729    -4.26006
| 66> H    -1.11250    -3.87715    -4.65697
| 67> H    -0.92249    -3.33260    -2.91235
| 68> O    -2.24629     4.66297    -0.67806
| 69> H    -1.37674     4.20478    -0.75367
| 70> C    -2.03200     6.02863    -0.71354
| 71> H    -3.04215     6.51116    -0.72653
| 72> H    -1.36497     6.28193    -1.57442
| 73> H    -1.54659     6.37631     0.18246
| 74> O    -2.84379    -0.48385     4.62765
| 75> H    -2.81687     0.41978     4.25721
| 76> C    -2.68823    -1.47448     3.62715
| 77> H    -2.96033    -2.47323     4.11701
| 78> H    -1.65514    -1.56939     3.26990
| 79> H    -3.32836    -1.22773     2.75991
| 80> O     2.67037    -1.89830    -4.39235
| 81> H     3.56547    -1.83721    -4.07318
| 82> C     2.76534    -2.84797    -5.38976
| 83> H     1.81084    -3.38339    -5.52932
| 84> H     3.47468    -3.57815    -5.10692
| 85> H     3.01890    -2.36760    -6.36874
| 86> O    -0.36876    -3.24019     4.58647
| 87> H     0.57256    -3.31397     4.84359
| 88> C    -0.77622    -4.49497     4.31793
| 89> H    -1.85278    -4.61143     4.55675
| 90> H    -0.15173    -5.21174     4.90488
| 91> H    -0.59901    -4.70624     3.26431
| 92> O    -3.91375    -3.62126    -1.84497
| 93> H    -4.66793    -3.77583    -2.37910
| 94> C    -4.18822    -4.02898    -0.54663
| 95> H    -3.56068    -4.89479    -0.24836
| 96> H    -5.22551    -4.31632    -0.51263
| 97> H    -4.04861    -3.21638     0.09937
| 98> O     1.97226    -5.45035    -2.35088
| 99> H     1.48863    -6.26025    -2.34702
|100> C     3.40429    -5.84361    -2.45368
|101> H     4.08547    -5.45425    -1.69100
|102> H     3.80621    -5.44741    -3.37201
|103> H     3.51542    -6.93676    -2.46875
|104> O     0.96588     6.29710     0.05500
|105> H     0.68084     5.80523     0.89095
|106> C     1.82942     7.35765     0.46912
|107> H     2.08215     7.96547    -0.36438
|108> H     2.72950     6.87847     0.84554
|109> H     1.34007     8.00792     1.22985
|110> O     3.32400    -5.22471     1.85717
|111> H     3.20280    -5.56813     2.72615
|112> C     4.57973    -4.62096     1.81972
|113> H     4.60341    -3.66337     1.34835
|114> H     5.30091    -5.29795     1.47129
|115> H     4.83651    -4.37689     2.89777
|116> O     0.35552    -6.81914     0.82476
|117> H     0.92998    -7.13285     1.52124
|118> C     0.64956    -5.42906     0.66014
|119> H    -0.07280    -4.88298     0.03482
|120> H     1.57420    -5.34483     0.11870
|121> H     0.88080    -5.00006     1.56231
|122> O     5.14486     3.89778    -2.62299
|123> H     6.10270     3.99770    -2.63314
|124> C     4.79727     3.12110    -3.79631
|125> H     4.14971     3.70824    -4.40072
|126> H     4.39538     2.18810    -3.49348
|127> H     5.71744     2.89670    -4.38361
|128> 
|129> *
|130> 
|131>                          ****END OF INPUT****
================================================================================

                       ****************************
                       * Single Point Calculation *
                       ****************************

---------------------------------
CARTESIAN COORDINATES (ANGSTROEM)
---------------------------------
  O      0.000000    0.000000    0.000000
  H      0.079380    0.329930   -0.957200
  C     -1.100740   -0.688980    0.290820
  H     -1.537820   -0.328230    1.216780
  H     -0.921640   -1.785740    0.381040
  H     -1.844590   -0.624520   -0.512540
  O      0.111920    1.290850   -2.796030
  H      0.455140    2.210110   -2.558330
  C      1.238040    0.453690   -2.904040
  H      1.004420   -0.519650   -2.550180
  H      1.968910    1.030580   -2.357210
  H      1.529130    0.494810   -3.906500
  O      0.607380    1.325240    3.028570
  H      0.007150    1.103520    2.243690
  C      1.072320    0.100380    3.571030
  H      1.483620    0.280690    4.563370
  H      1.899260   -0.337610    2.902270
  H      0.213750   -0.526190    3.653390
  O     -2.286580    2.269080    2.986720
  H     -2.267190    2.717940    3.890510
  C     -3.326260    2.697050    2.146990
  H     -3.728000    1.883480    1.600380
  H     -3.007870    3.459140    1.521050
  H     -4.139280    3.122020    2.744590
  O      1.547760    4.270490   -1.410130
  H      1.395730    5.127570   -1.016880
  C      1.913890    3.346080   -0.356100
  H      2.339120    2.422770   -0.827600
  H      0.996220    3.056470    0.262370
  H      2.679760    3.738590    0.369980
  O     -0.201060    4.548270    1.934480
  H      0.120050    3.746600    2.359480
  C     -0.971670    5.250540    2.890650
  H     -1.364690    6.207180    2.438220
  H     -0.383480    5.532470    3.787650
  H     -1.877630    4.618670    3.065420
  O     -4.439830    1.409350   -1.840390
  H     -4.516460    1.980310   -2.603410
  C     -3.910080    0.242740   -2.353880
  H     -4.268120   -0.649920   -1.808460
  H     -2.871930    0.346710   -2.290770
  H     -4.180990    0.205470   -3.389770
  O      2.892190    3.196840    2.781820
  H      2.267500    2.498120    3.109050
  C      3.987340    3.152450    3.637960
  H      4.083520    4.059610    4.201130
  H      4.852250    2.959910    3.002580
  H      3.789170    2.311130    4.301660
  O      4.628880   -1.732790   -1.564210
  H      5.007710   -2.454660   -0.986600
  C      3.415460   -1.570570   -1.055410
  H      3.138570   -0.504300   -1.053210
  H      3.523720   -1.927480   -0.001920
  H      2.696490   -2.205760   -1.549800
  O     -2.097950   -2.119340   -4.262730
  H     -2.882470   -2.577560   -3.892590
  C     -1.008230   -3.007510   -4.009720
  H     -0.004910   -2.537290   -4.260060
  H     -1.112500   -3.877150   -4.656970
  H     -0.922490   -3.332600   -2.912350
  O     -2.246290    4.662970   -0.678060
  H     -1.376740    4.204780   -0.753670
  C     -2.032000    6.028630   -0.713540
  H     -3.042150    6.511160   -0.726530
  H     -1.364970    6.281930   -1.574420
  H     -1.546590    6.376310    0.182460
  O     -2.843790   -0.483850    4.627650
  H     -2.816870    0.419780    4.257210
  C     -2.688230   -1.474480    3.627150
  H     -2.960330   -2.473230    4.117010
  H     -1.655140   -1.569390    3.269900
  H     -3.328360   -1.227730    2.759910
  O      2.670370   -1.898300   -4.392350
  H      3.565470   -1.837210   -4.073180
  C      2.765340   -2.847970   -5.389760
  H      1.810840   -3.383390   -5.529320
  H      3.474680   -3.578150   -5.106920
  H      3.018900   -2.367600   -6.368740
  O     -0.368760   -3.240190    4.586470
  H      0.572560   -3.313970    4.843590
  C     -0.776220   -4.494970    4.317930
  H     -1.852780   -4.611430    4.556750
  H     -0.151730   -5.211740    4.904880
  H     -0.599010   -4.706240    3.264310
  O     -3.913750   -3.621260   -1.844970
  H     -4.667930   -3.775830   -2.379100
  C     -4.188220   -4.028980   -0.546630
  H     -3.560680   -4.894790   -0.248360
  H     -5.225510   -4.316320   -0.512630
  H     -4.048610   -3.216380    0.099370
  O      1.972260   -5.450350   -2.350880
  H      1.488630   -6.260250   -2.347020
  C      3.404290   -5.843610   -2.453680
  H      4.085470   -5.454250   -1.691000
  H      3.806210   -5.447410   -3.372010
  H      3.515420   -6.936760   -2.468750
  O      0.965880    6.297100    0.055000
  H      0.680840    5.805230    0.890950
  C      1.829420    7.357650    0.469120
  H      2.082150    7.965470   -0.364380
  H      2.729500    6.878470    0.845540
  H      1.340070    8.007920    1.229850
  O      3.324000   -5.224710    1.857170
  H      3.202800   -5.568130    2.726150
  C      4.579730   -4.620960    1.819720
  H      4.603410   -3.663370    1.348350
  H      5.300910   -5.297950    1.471290
  H      4.836510   -4.376890    2.897770
  O      0.355520   -6.819140    0.824760
  H      0.929980   -7.132850    1.521240
  C      0.649560   -5.429060    0.660140
  H     -0.072800   -4.882980    0.034820
  H      1.574200   -5.344830    0.118700
  H      0.880800   -5.000060    1.562310
  O      5.144860    3.897780   -2.622990
  H      6.102700    3.997700   -2.633140
  C      4.797270    3.121100   -3.796310
  H      4.149710    3.708240   -4.400720
  H      4.395380    2.188100   -3.493480
  H      5.717440    2.896700   -4.383610

----------------------------
CARTESIAN COORDINATES (A.U.)
----------------------------
  NO LB      ZA    FRAG     MASS         X           Y           Z
   0 O     8.0000    0    15.999    0.000000    0.000000    0.000000
   1 H     1.0000    0     1.008    0.150006    0.623477   -1.808846
   2 C     6.0000    0    12.011   -2.080097   -1.301984    0.549570
   3 H     1.0000    0     1.008   -2.906059   -0.620265    2.299381
   4 H     1.0000    0     1.008   -1.741647   -3.374560    0.720061
   5 H     1.0000    0     1.008   -3.485770   -1.180172   -0.968560
   6 O     8.0000    0    15.999    0.211498    2.439353   -5.283731
   7 H     1.0000    0     1.008    0.860090    4.176503   -4.834543
   8 C     6.0000    0    12.011    2.339557    0.857350   -5.487840
   9 H     1.0000    0     1.008    1.898079   -0.981996   -4.819142
  10 H     1.0000    0     1.008    3.720701    1.947514   -4.454481
  11 H     1.0000    0     1.008    2.889637    0.935055   -7.382215
  12 O     8.0000    0    15.999    1.147782    2.504341    5.723168
  13 H     1.0000    0     1.008    0.013512    2.085351    4.239960
  14 C     6.0000    0    12.011    2.026391    0.189691    6.748269
  15 H     1.0000    0     1.008    2.803635    0.530427    8.623520
  16 H     1.0000    0     1.008    3.589081   -0.637990    5.484495
  17 H     1.0000    0     1.008    0.403929   -0.994355    6.903907
  18 O     8.0000    0    15.999   -4.321010    4.287940    5.644083
  19 H     1.0000    0     1.008   -4.284368    5.136162    7.351998
  20 C     6.0000    0    12.011   -6.285720    5.096686    4.057223
  21 H     1.0000    0     1.008   -7.044899    3.559261    3.024280
  22 H     1.0000    0     1.008   -5.684051    6.536827    2.874368
  23 H     1.0000    0     1.008   -7.822106    5.899763    5.186523
  24 O     8.0000    0    15.999    2.924843    8.070057   -2.664760
  25 H     1.0000    0     1.008    2.637547    9.689703   -1.921625
  26 C     6.0000    0    12.011    3.616728    6.323175   -0.672931
  27 H     1.0000    0     1.008    4.420296    4.578372   -1.563937
  28 H     1.0000    0     1.008    1.882583    5.775891    0.495807
  29 H     1.0000    0     1.008    5.064013    7.064911    0.699161
  30 O     8.0000    0    15.999   -0.379948    8.594985    3.655637
  31 H     1.0000    0     1.008    0.226862    7.080048    4.458771
  32 C     6.0000    0    12.011   -1.836190    9.922083    5.462537
  33 H     1.0000    0     1.008   -2.578890   11.729870    4.607568
  34 H     1.0000    0     1.008   -0.724672   10.454853    7.157621
  35 H     1.0000    0     1.008   -3.548206    8.728021    5.792804
  36 O     8.0000    0    15.999   -8.390063    2.663286   -3.477833
  37 H     1.0000    0     1.008   -8.534872    3.742244   -4.919732
  38 C     6.0000    0    12.011   -7.388980    0.458712   -4.448189
  39 H     1.0000    0     1.008   -8.065578   -1.228171   -3.417494
  40 H     1.0000    0     1.008   -5.427161    0.655187   -4.328928
  41 H     1.0000    0     1.008   -7.900926    0.388282   -6.405737
  42 O     8.0000    0    15.999    5.465447    6.041152    5.256878
  43 H     1.0000    0     1.008    4.284954    4.720763    5.875253
  44 C     6.0000    0    12.011    7.534981    5.957267    6.874748
  45 H     1.0000    0     1.008    7.716734    7.671551    7.938985
  46 H     1.0000    0     1.008    9.169424    5.593419    5.674054
  47 H     1.0000    0     1.008    7.160494    4.367403    8.128959
  48 O     8.0000    0    15.999    8.747316   -3.274499   -2.955929
  49 H     1.0000    0     1.008    9.463200   -4.638635   -1.864404
  50 C     6.0000    0    12.011    6.454284   -2.967947   -1.994436
  51 H     1.0000    0     1.008    5.931038   -0.952989   -1.990278
  52 H     1.0000    0     1.008    6.658866   -3.642409   -0.003628
  53 H     1.0000    0     1.008    5.095628   -4.168282   -2.928698
  54 O     8.0000    0    15.999   -3.964551   -4.004972   -8.055392
  55 H     1.0000    0     1.008   -5.447079   -4.870882   -7.355929
  56 C     6.0000    0    12.011   -1.905279   -5.683370   -7.577273
  57 H     1.0000    0     1.008   -0.009279   -4.794783   -8.050347
  58 H     1.0000    0     1.008   -2.102320   -7.326752   -8.800398
  59 H     1.0000    0     1.008   -1.743253   -6.297701   -5.503544
  60 O     8.0000    0    15.999   -4.244873    8.811736   -1.281348
  61 H     1.0000    0     1.008   -2.601662    7.945883   -1.424230
  62 C     6.0000    0    12.011   -3.839924   11.392460   -1.348395
  63 H     1.0000    0     1.008   -5.748830   12.304309   -1.372943
  64 H     1.0000    0     1.008   -2.579419   11.871127   -2.975223
  65 H     1.0000    0     1.008   -2.922632   12.049480    0.344799
  66 O     8.0000    0    15.999   -5.373984   -0.914344    8.744991
  67 H     1.0000    0     1.008   -5.323113    0.793269    8.044961
  68 C     6.0000    0    12.011   -5.080018   -2.786363    6.854320
  69 H     1.0000    0     1.008   -5.594213   -4.673727    7.780021
  70 H     1.0000    0     1.008   -3.127761   -2.965717    6.179215
  71 H     1.0000    0     1.008   -6.289689   -2.320073    5.215474
  72 O     8.0000    0    15.999    5.046268   -3.587267   -8.300339
  73 H     1.0000    0     1.008    6.737762   -3.471824   -7.697195
  74 C     6.0000    0    12.011    5.225735   -5.381883  -10.185170
  75 H     1.0000    0     1.008    3.421992   -6.393681  -10.448901
  76 H     1.0000    0     1.008    6.566194   -6.761724   -9.650680
  77 H     1.0000    0     1.008    5.704894   -4.474116  -12.035174
  78 O     8.0000    0    15.999   -0.696855   -6.123072    8.667172
  79 H     1.0000    0     1.008    1.081982   -6.262496    9.153059
  80 C     6.0000    0    12.011   -1.466843   -8.494262    8.159705
  81 H     1.0000    0     1.008   -3.501247   -8.714340    8.611010
  82 H     1.0000    0     1.008   -0.286728   -9.848761    9.268880
  83 H     1.0000    0     1.008   -1.131965   -8.893505    6.168652
  84 O     8.0000    0    15.999   -7.395916   -6.843190   -3.486488
  85 H     1.0000    0     1.008   -8.821109   -7.135285   -4.495847
  86 C     6.0000    0    12.011   -7.914589   -7.613669   -1.032981
  87 H     1.0000    0     1.008   -6.728710   -9.249813   -0.469332
  88 H     1.0000    0     1.008   -9.874783   -8.156663   -0.968730
  89 H     1.0000    0     1.008   -7.650764   -6.078077    0.187782
  90 O     8.0000    0    15.999    3.727031  -10.299669   -4.442519
  91 H     1.0000    0     1.008    2.813103  -11.830158   -4.435225
  92 C     6.0000    0    12.011    6.433176  -11.042823   -4.636783
  93 H     1.0000    0     1.008    7.720419  -10.307039   -3.195527
  94 H     1.0000    0     1.008    7.192695  -10.294113   -6.372175
  95 H     1.0000    0     1.008    6.643181  -13.108577   -4.665261
  96 O     8.0000    0    15.999    1.825249   11.899794    0.103935
  97 H     1.0000    0     1.008    1.286601   10.970295    1.683651
  98 C     6.0000    0    12.011    3.457103   13.903943    0.886508
  99 H     1.0000    0     1.008    3.934693   15.052557   -0.688578
 100 H     1.0000    0     1.008    5.158007   12.998425    1.597839
 101 H     1.0000    0     1.008    2.532365   15.132776    2.324080
 102 O     8.0000    0    15.999    6.281450   -9.873271    3.509543
 103 H     1.0000    0     1.008    6.052415  -10.522241    5.151677
 104 C     6.0000    0    12.011    8.654435   -8.732349    3.438772
 105 H     1.0000    0     1.008    8.699184   -6.922766    2.548012
 106 H     1.0000    0     1.008   10.017268  -10.011675    2.780335
 107 H     1.0000    0     1.008    9.139679   -8.271123    5.475992
 108 O     8.0000    0    15.999    0.671835  -12.886307    1.558571
 109 H     1.0000    0     1.008    1.757408  -13.479133    2.874727
 110 C     6.0000    0    12.011    1.227491  -10.259437    1.247484
 111 H     1.0000    0     1.008   -0.137572   -9.227495    0.065800
 112 H     1.0000    0     1.008    2.974807  -10.100265    0.224310
 113 H     1.0000    0     1.008    1.664471   -9.448744    2.952338
 114 O     8.0000    0    15.999    9.722376    7.365737   -4.956733
 115 H     1.0000    0     1.008   11.532432    7.554558   -4.975913
 116 C     6.0000    0    12.011    9.065526    5.898024   -7.173986
 117 H     1.0000    0     1.008    7.841815    7.007558   -8.316156
 118 H     1.0000    0     1.008    8.306064    4.134910   -6.601720
 119 H     1.0000    0     1.008   10.804396    5.473970   -8.283822

--------------------------------
INTERNAL COORDINATES (ANGSTROEM)
--------------------------------
 O      0   0   0     0.000000000000     0.00000000     0.00000000
 H      1   0   0     1.015572168435     0.00000000     0.00000000
 C      1   2   0     1.330751013676   116.02914187     0.00000000
 H      3   1   2     1.085624894013   110.32676478   226.97018052
 H      3   1   2     1.114943476594   113.21027486   104.75560020
 H      3   1   2     1.096747556961   111.74631582   348.91731465
 O      2   1   3     2.075023341290   170.71867741    95.26927636
 H      7   2   1     1.009623794292   102.61135709    43.04995979
 C      7   2   1     1.407355420674    78.76067297   147.88722191
 H      9   7   2     1.061690142932   110.10199624    44.55146698
 H      9   7   2     1.079812982835   100.65706816   279.23581601
 H      9   7   2     1.044677124331   105.85423052   169.00948886
 O      4   3   1     3.258593114367   112.19749998   340.21445365
 H     13   4   3     1.012656124111    21.21226593    64.73259710
 C     13   4   3     1.417996500278    89.44129772   275.52068972
 H     15  13   4     1.089228195421   109.22900680   206.85460155
 H     15  13   4     1.150176047960   110.01353821    87.56851620
 H     15  13   4     1.066074846997   105.85320575   324.46713110
 O     14  13   4     2.678025580050   101.38098069    89.22783436
 H     19  14  13     1.009300567621   115.18566649   358.36890592
 C     19  14  13     1.403295869088   126.96120008   156.34603232
 H     21  19  14     1.059279785798   110.82646741    60.62066671
 H     21  19  14     1.036317636538   110.98262541   295.90805941
 H     21  19  14     1.094863818609   109.99390985   179.16557867
 O      8   7   2     2.599489843950   165.59192632    19.24453338
 H     25   8   7     0.955167425010   145.70696178   244.82489996
 C     25   8   7     1.448987324272    85.51782998     1.09631904
 H     27  25   8     1.120550828388   108.38971195    46.19975205
 H     27  25   8     1.143895677892   110.61638499   286.91807649
 H     27  25   8     1.125972079316   114.74329040   166.32196689
 O     29  27  25     2.540649226182   125.81924353   286.92871564
 H     31  29  27     0.962502686230    69.16563204   239.01794729
 C     31  29  27     1.414667449933   173.22876060   179.82237220
 H     33  31  32     1.128856817714   109.84327977   179.54386719
 H     33  31  32     1.109081151675   112.57857512    60.34548341
 H     33  31  32     1.118287875013   105.45248985   292.24296909
 O     22  21  19     3.545475905813   132.81504361   229.30423868
 H     37  22  21     0.956068511614   135.29531219   345.45948566
 C     37  22  21     1.380320953510   113.39022730   129.22211488
 H     39  37  22     1.105675130226   111.99704961    57.72361061
 H     39  37  22     1.045250235829   105.94121617   295.52882758
 H     39  37  22     1.071377325269   106.98022338   180.21627987
 O     30  27  25     2.481046503595   127.51579649   148.34364809
 H     43  30  27     0.992736977955   114.84955513     5.25210715
 C     43  30  27     1.390791031823   132.28327992   150.69159461
 H     45  43  30     1.072077565711   111.53092033    97.23327839
 H     45  43  30     1.090343388158   105.75611244   334.50520963
 H     45  43  30     1.089765287252   104.85387543   216.80462340
 O     11   9   7     3.916695438479   100.67695429   161.03362614
 H     49  11   9     0.999120502192   152.16636291   270.05406632
 C     49  11   9     1.325737856742    50.93319340   288.57309069
 H     51  49  11     1.101637247464   110.44145423   330.47916099
 H     51  49  11     1.117562595920   103.53505750   213.49835374
 H     51  49  11     1.079261631441   111.21750258    97.79425197
 O     42  39  37     3.241273876009    97.05673871   165.07991522
 H     55  42  39     0.981040681318    73.70826990    83.25528798
 C     55  42  39     1.428408095539   152.69229002   352.79294633
 H     57  55  42     1.135970064042   112.17211251   270.70945707
 H     57  55  42     1.089072323126   108.55401683   153.29548094
 H     57  55  42     1.147717636268   113.73269478    29.93143753
 O     23  21  19     2.620170902327   159.08488528   106.11552994
 H     61  23  21     0.985785042847    96.15469449   290.55540678
 C     61  23  21     1.382825466247   121.35375847   174.25823290
 H     63  61  23     1.119556592361   106.62622098   284.39121853
 H     63  61  23     1.118125344181   109.62901931   158.60063229
 H     63  61  23     1.076717349400   111.55596860    39.79973315
 O     18  15  13     3.209287471511   141.53374962   314.78423439
 H     67  18  15     0.976983959387    82.57925860    36.79380037
 C     67  18  15     1.416526371269    70.83629274   153.32470914
 H     69  67  18     1.145208623832   106.36095734   118.83975193
 H     69  67  18     1.097228517083   113.19484043     1.97876347
 H     69  67  18     1.105783521762   109.53071613   241.40196590
 O     12   9   7     2.695450691851   104.83242454   209.31675389
 H     73  12   9     0.952263349605   106.29652783   277.99306877
 C     73  12   9     1.380477858533   140.36504651   142.35457143
 H     75  73  12     1.103277761944   111.45238242   289.10208236
 H     75  73  12     1.056562602783   109.15909359   172.08723351
 H     75  73  12     1.119575745941   110.62152074    48.10561651
 O     71  69  67     2.485900784283   111.89582020    90.39716364
 H     79  71  69     0.978589559110   133.43961373   212.17677432
 C     79  71  69     1.346332140150   111.35586205    71.43039750
 H     81  79  71     1.108863994185   110.41110321   300.63201504
 H     81  79  71     1.117254355776   108.90319300   178.22998967
 H     81  79  71     1.089106744722   108.93596037    61.82447071
 O     56  55  42     2.519046603936   145.85185937   264.96229573
 H     85  56  55     0.937002782386    86.24451939   178.14327057
 C     85  56  55     1.388256509043   164.32950982    11.27648828
 H     87  85  56     1.110134406547   111.62748771   280.26859854
 H     87  85  56     1.076889418511   107.35732003   160.69755295
 H     87  85  56     1.047437688887   108.82019412    43.55465035
 O     54  51  49     3.419590988320   143.78638784    56.47780509
 H     91  54  51     0.943319079898   157.25719466   116.20970405
 C     91  54  51     1.488600412636    93.61770933   328.85749986
 H     93  91  54     1.094206646114   117.17663690    41.82702852
 H     93  91  54     1.077888730482   108.68937099   285.23119180
 H     93  91  54     1.098887575824   111.16377935   165.95813514
 O     26  25   8     1.643623490280   161.55074338    76.51111210
 H     97  26  25     1.010938327001   105.47359310     3.73892240
 C     97  26  25     1.428972710901   123.99019591   127.23576309
 H     99  97  26     1.062092206590   109.94427603    62.69798502
 H     99  97  26     1.086945028601   105.87799546   304.99425179
 H     99  97  26     1.114012849253   111.44867422   182.21833891
 O     94  93  91     3.636211699200   124.90629890    41.44369319
 H    103  94  93     0.942206440649   154.67290897    76.11909060
 C    103  94  93     1.393834422699    79.19085624   184.00284892
 H    105 103  94     1.067580923115   114.85836722    70.32799941
 H    105 103  94     1.048722802937   110.41671106   298.80389981
 H    105 103  94     1.134767789374   105.75373149   182.93227747
 O     84  81  79     3.365542769510   150.36286482   140.66947325
 H    109  84  81     0.955773323597    81.27548307   327.37409556
 C    109  84  81     1.430343200914    62.06938697   213.72223942
 H    111 109  84     1.100469190118   114.37545549   262.32331206
 H    111 109  84     1.074807469317   108.11894042   147.17312409
 H    111 109  84     1.025389509650   110.59128679    35.69198838
 O     28  27  25     3.642973606794    99.55654074    59.52545336
 H    115  28  27     0.963091114329   144.40784383   106.32829941
 C    115  28  27     1.449389682901    89.84492467   225.46459225
 H    117 115  28     1.062722344406   108.08815420    92.14212507
 H    117 115  28     1.060052159566   109.34770210   326.66102264
 H    117 115  28     1.114445816942   109.66373424   210.06071170

---------------------------
INTERNAL COORDINATES (A.U.)
---------------------------
 O      0   0   0     0.000000000000     0.00000000     0.00000000
 H      1   0   0     1.919153267575     0.00000000     0.00000000
 C      1   2   0     2.514754968286   116.02914187     0.00000000
 H      3   1   2     2.051533733851   110.32676478   226.97018052
 H      3   1   2     2.106937825565   113.21027486   104.75560020
 H      3   1   2     2.072552520704   111.74631582   348.91731465
 O      2   1   3     3.921225836533   170.71867741    95.26927636
 H      7   2   1     1.907912469502   102.61135709    43.04995979
 C      7   2   1     2.659516318163    78.76067297   147.88722191
 H      9   7   2     2.006303609226   110.10199624    44.55146698
 H      9   7   2     2.040550813412   100.65706816   279.23581601
 H      9   7   2     1.974153663358   105.85423052   169.00948886
 O      4   3   1     6.157848568035   112.19749998   340.21445365
 H     13   4   3     1.913642742408    21.21226593    64.73259710
 C     13   4   3     2.679625044384    89.44129772   275.52068972
 H     15  13   4     2.058342986691   109.22900680   206.85460155
 H     15  13   4     2.173517736440   110.01353821    87.56851620
 H     15  13   4     2.014589499087   105.85320575   324.46713110
 O     14  13   4     5.060734925929   101.38098069    89.22783436
 H     19  14  13     1.907301659615   115.18566649   358.36890592
 C     19  14  13     2.651844877440   126.96120008   156.34603232
 H     21  19  14     2.001748694357   110.82646741    60.62066671
 H     21  19  14     1.958356520810   110.98262541   295.90805941
 H     21  19  14     2.068992771111   109.99390985   179.16557867
 O      8   7   2     4.912323892975   165.59192632    19.24453338
 H     25   8   7     1.805004845311   145.70696178   244.82489996
 C     25   8   7     2.738189214397    85.51782998     1.09631904
 H     27  25   8     2.117534184791   108.38971195    46.19975205
 H     27  25   8     2.161649556992   110.61638499   286.91807649
 H     27  25   8     2.127778864350   114.74329040   166.32196689
 O     29  27  25     4.801131239843   125.81924353   286.92871564
 H     31  29  27     1.818866480138    69.16563204   239.01794729
 C     31  29  27     2.673334050946   173.22876060   179.82237220
 H     33  31  32     2.133230229890   109.84327977   179.54386719
 H     33  31  32     2.095859636959   112.57857512    60.34548341
 H     33  31  32     2.113257822658   105.45248985   292.24296909
 O     22  21  19     6.699978476403   132.81504361   229.30423868
 H     37  22  21     1.806707652216   135.29531219   345.45948566
 C     37  22  21     2.608428579048   113.39022730   129.22211488
 H     39  37  22     2.089423189215   111.99704961    57.72361061
 H     39  37  22     1.975236687133   105.94121617   295.52882758
 H     39  37  22     2.024609730851   106.98022338   180.21627987
 O     30  27  25     4.688498417317   127.51579649   148.34364809
 H     43  30  27     1.876001011352   114.84955513     5.25210715
 C     43  30  27     2.628214159660   132.28327992   150.69159461
 H     45  43  30     2.025932993514   111.53092033    97.23327839
 H     45  43  30     2.060450395551   105.75611244   334.50520963
 H     45  43  30     2.059357943161   104.85387543   216.80462340
 O     11   9   7     7.401481728703   100.67695429   161.03362614
 H     49  11   9     1.888064123928   152.16636291   270.05406632
 C     49  11   9     2.505281474615    50.93319340   288.57309069
 H     51  49  11     2.081792696634   110.44145423   330.47916099
 H     51  49  11     2.111887243803   103.53505750   213.49835374
 H     51  49  11     2.039508910272   111.21750258    97.79425197
 O     42  39  37     6.125119950691    97.05673871   165.07991522
 H     55  42  39     1.853898213926    73.70826990    83.25528798
 C     55  42  39     2.699300108044   152.69229002   352.79294633
 H     57  55  42     2.146672317373   112.17211251   270.70945707
 H     57  55  42     2.058048430742   108.55401683   153.29548094
 H     57  55  42     2.168872011617   113.73269478    29.93143753
 O     23  21  19     4.951405429467   159.08488528   106.11552994
 H     61  23  21     1.862863757896    96.15469449   290.55540678
 C     61  23  21     2.613161422218   121.35375847   174.25823290
 H     63  61  23     2.115655350989   106.62622098   284.39121853
 H     63  61  23     2.112950683899   109.62901931   158.60063229
 H     63  61  23     2.034700914009   111.55596860    39.79973315
 O     18  15  13     6.064674406181   141.53374962   314.78423439
 H     67  18  15     1.846232120476    82.57925860    36.79380037
 C     67  18  15     2.676846903175    70.83629274   153.32470914
 H     69  67  18     2.164130665248   106.36095734   118.83975193
 H     69  67  18     2.073461403615   113.19484043     1.97876347
 H     69  67  18     2.089628019533   109.53071613   241.40196590
 O     12   9   7     5.093663615087   104.83242454   209.31675389
 H     73  12   9     1.799516938123   106.29652783   277.99306877
 C     73  12   9     2.608725086570   140.36504651   142.35457143
 H     75  73  12     2.084892819720   111.45238242   289.10208236
 H     75  73  12     1.996613962603   109.15909359   172.08723351
 H     75  73  12     2.115691546010   110.62152074    48.10561651
 O     71  69  67     4.697671678395   111.89582020    90.39716364
 H     79  71  69     1.849266264234   133.43961373   212.17677432
 C     79  71  69     2.544199030179   111.35586205    71.43039750
 H     81  79  71     2.095449268776   110.41110321   300.63201504
 H     81  79  71     2.111304754347   108.90319300   178.22998967
 H     81  79  71     2.058113478132   108.93596037    61.82447071
 O     56  55  42     4.760308200023   145.85185937   264.96229573
 H     85  56  55     1.770678645433    86.24451939   178.14327057
 C     85  56  55     2.623424605725   164.32950982    11.27648828
 H     87  85  56     2.097850000217   111.62748771   280.26859854
 H     87  85  56     2.035026077503   107.35732003   160.69755295
 H     87  85  56     1.979370374343   108.82019412    43.55465035
 O     54  51  49     6.462090457950   143.78638784    56.47780509
 H     91  54  51     1.782614717910   157.25719466   116.20970405
 C     91  54  51     2.813047102724    93.61770933   328.85749986
 H     93  91  54     2.067750895072   117.17663690    41.82702852
 H     93  91  54     2.036914503451   108.68937099   285.23119180
 H     93  91  54     2.076596570276   111.16377935   165.95813514
 O     26  25   8     3.105998263909   161.55074338    76.51111210
 H     97  26  25     1.910396576317   105.47359310     3.73892240
 C     97  26  25     2.700367076450   123.99019591   127.23576309
 H     99  97  26     2.007063399428   109.94427603    62.69798502
 H     99  97  26     2.054028426683   105.87799546   304.99425179
 H     99  97  26     2.105179194757   111.44867422   182.21833891
 O     94  93  91     6.871444276449   124.90629890    41.44369319
 H    103  94  93     1.780512134443   154.67290897    76.11909060
 C    103  94  93     2.633965334933    79.19085624   184.00284892
 H    105 103  94     2.017435570487   114.85836722    70.32799941
 H    105 103  94     1.981798887949   110.41671106   298.80389981
 H    105 103  94     2.144400347511   105.75373149   182.93227747
 O     84  81  79     6.359954126372   150.36286482   140.66947325
 H    109  84  81     1.806149827706    81.27548307   327.37409556
 C    109  84  81     2.702956927243    62.06938697   213.72223942
 H    111 109  84     2.079585388142   114.37545549   262.32331206
 H    111 109  84     2.031091763702   108.11894042   147.17312409
 H    111 109  84     1.937705353834   110.59128679    35.69198838
 O     28  27  25     6.884222429945    99.55654074    59.52545336
 H    115  28  27     1.819978448095   144.40784383   106.32829941
 C    115  28  27     2.738949562014    89.84492467   225.46459225
 H    117 115  28     2.008254187326   108.08815420    92.14212507
 H    117 115  28     2.003208269251   109.34770210   326.66102264
 H    117 115  28     2.105997385115   109.66373424   210.06071170

---------------------
BASIS SET INFORMATION
---------------------
There are 3 groups of distinct atoms

 Group   1 Type O   : 11s6p2d1f contracted to 5s3p2d1f pattern {62111/411/11/1}
 Group   2 Type H   : 5s1p contracted to 3s1p pattern {311/1}
 Group   3 Type C   : 11s6p2d1f contracted to 5s3p2d1f pattern {62111/411/11/1}

Atom   0O    basis set group =>   1
Atom   1H    basis set group =>   2
Atom   2C    basis set group =>   3
Atom   3H    basis set group =>   2
Atom   4H    basis set group =>   2
Atom   5H    basis set group =>   2
Atom   6O    basis set group =>   1
Atom   7H    basis set group =>   2
Atom   8C    basis set group =>   3
Atom   9H    basis set group =>   2
Atom  10H    basis set group =>   2
Atom  11H    basis set group =>   2
Atom  12O    basis set group =>   1
Atom  13H    basis set group =>   2
Atom  14C    basis set group =>   3
Atom  15H    basis set group =>   2
Atom  16H    basis set group =>   2
Atom  17H    basis set group =>   2
Atom  18O    basis set group =>   1
Atom  19H    basis set group =>   2
Atom  20C    basis set group =>   3
Atom  21H    basis set group =>   2
Atom  22H    basis set group =>   2
Atom  23H    basis set group =>   2
Atom  24O    basis set group =>   1
Atom  25H    basis set group =>   2
Atom  26C    basis set group =>   3
Atom  27H    basis set group =>   2
Atom  28H    basis set group =>   2
Atom  29H    basis set group =>   2
Atom  30O    basis set group =>   1
Atom  31H    basis set group =>   2
Atom  32C    basis set group =>   3
Atom  33H    basis set group =>   2
Atom  34H    basis set group =>   2
Atom  35H    basis set group =>   2
Atom  36O    basis set group =>   1
Atom  37H    basis set group =>   2
Atom  38C    basis set group =>   3
Atom  39H    basis set group =>   2
Atom  40H    basis set group =>   2
Atom  41H    basis set group =>   2
Atom  42O    basis set group =>   1
Atom  43H    basis set group =>   2
Atom  44C    basis set group =>   3
Atom  45H    basis set group =>   2
Atom  46H    basis set group =>   2
Atom  47H    basis set group =>   2
Atom  48O    basis set group =>   1
Atom  49H    basis set group =>   2
Atom  50C    basis set group =>   3
Atom  51H    basis set group =>   2
Atom  52H    basis set group =>   2
Atom  53H    basis set group =>   2
Atom  54O    basis set group =>   1
Atom  55H    basis set group =>   2
Atom  56C    basis set group =>   3
Atom  57H    basis set group =>   2
Atom  58H    basis set group =>   2
Atom  59H    basis set group =>   2
Atom  60O    basis set group =>   1
Atom  61H    basis set group =>   2
Atom  62C    basis set group =>   3
Atom  63H    basis set group =>   2
Atom  64H    basis set group =>   2
Atom  65H    basis set group =>   2
Atom  66O    basis set group =>   1
Atom  67H    basis set group =>   2
Atom  68C    basis set group =>   3
Atom  69H    basis set group =>   2
Atom  70H    basis set group =>   2
Atom  71H    basis set group =>   2
Atom  72O    basis set group =>   1
Atom  73H    basis set group =>   2
Atom  74C    basis set group =>   3
Atom  75H    basis set group =>   2
Atom  76H    basis set group =>   2
Atom  77H    basis set group =>   2
Atom  78O    basis set group =>   1
Atom  79H    basis set group =>   2
Atom  80C    basis set group =>   3
Atom  81H    basis set group =>   2
Atom  82H    basis set group =>   2
Atom  83H    basis set group =>   2
Atom  84O    basis set group =>   1
Atom  85H    basis set group =>   2
Atom  86C    basis set group =>   3
Atom  87H    basis set group =>   2
Atom  88H    basis set group =>   2
Atom  89H    basis set group =>   2
Atom  90O    basis set group =>   1
Atom  91H    basis set group =>   2
Atom  92C    basis set group =>   3
Atom  93H    basis set group =>   2
Atom  94H    basis set group =>   2
Atom  95H    basis set group =>   2
Atom  96O    basis set group =>   1
Atom  97H    basis set group =>   2
Atom  98C    basis set group =>   3
Atom  99H    basis set group =>   2
Atom 100H    basis set group =>   2
Atom 101H    basis set group =>   2
Atom 102O    basis set group =>   1
Atom 103H    basis set group =>   2
Atom 104C    basis set group =>   3
Atom 105H    basis set group =>   2
Atom 106H    basis set group =>   2
Atom 107H    basis set group =>   2
Atom 108O    basis set group =>   1
Atom 109H    basis set group =>   2
Atom 110C    basis set group =>   3
Atom 111H    basis set group =>   2
Atom 112H    basis set group =>   2
Atom 113H    basis set group =>   2
Atom 114O    basis set group =>   1
Atom 115H    basis set group =>   2
Atom 116C    basis set group =>   3
Atom 117H    basis set group =>   2
Atom 118H    basis set group =>   2
Atom 119H    basis set group =>   2
---------------------------------
AUXILIARY/C BASIS SET INFORMATION
---------------------------------
There are 3 groups of distinct atoms

 Group   1 Type O   : 8s6p5d3f1g contracted to 8s6p4d3f1g pattern {11111111/111111/2111/111/1}
 Group   2 Type H   : 4s3p2d contracted to 4s2p1d pattern {1111/21/2}
 Group   3 Type C   : 8s6p5d3f1g contracted to 8s6p4d3f1g pattern {11111111/111111/2111/111/1}

Atom   0O    basis set group =>   1
Atom   1H    basis set group =>   2
Atom   2C    basis set group =>   3
Atom   3H    basis set group =>   2
Atom   4H    basis set group =>   2
Atom   5H    basis set group =>   2
Atom   6O    basis set group =>   1
Atom   7H    basis set group =>   2
Atom   8C    basis set group =>   3
Atom   9H    basis set group =>   2
Atom  10H    basis set group =>   2
Atom  11H    basis set group =>   2
Atom  12O    basis set group =>   1
Atom  13H    basis set group =>   2
Atom  14C    basis set group =>   3
Atom  15H    basis set group =>   2
Atom  16H    basis set group =>   2
Atom  17H    basis set group =>   2
Atom  18O    basis set group =>   1
Atom  19H    basis set group =>   2
Atom  20C    basis set group =>   3
Atom  21H    basis set group =>   2
Atom  22H    basis set group =>   2
Atom  23H    basis set group =>   2
Atom  24O    basis set group =>   1
Atom  25H    basis set group =>   2
Atom  26C    basis set group =>   3
Atom  27H    basis set group =>   2
Atom  28H    basis set group =>   2
Atom  29H    basis set group =>   2
Atom  30O    basis set group =>   1
Atom  31H    basis set group =>   2
Atom  32C    basis set group =>   3
Atom  33H    basis set group =>   2
Atom  34H    basis set group =>   2
Atom  35H    basis set group =>   2
Atom  36O    basis set group =>   1
Atom  37H    basis set group =>   2
Atom  38C    basis set group =>   3
Atom  39H    basis set group =>   2
Atom  40H    basis set group =>   2
Atom  41H    basis set group =>   2
Atom  42O    basis set group =>   1
Atom  43H    basis set group =>   2
Atom  44C    basis set group =>   3
Atom  45H    basis set group =>   2
Atom  46H    basis set group =>   2
Atom  47H    basis set group =>   2
Atom  48O    basis set group =>   1
Atom  49H    basis set group =>   2
Atom  50C    basis set group =>   3
Atom  51H    basis set group =>   2
Atom  52H    basis set group =>   2
Atom  53H    basis set group =>   2
Atom  54O    basis set group =>   1
Atom  55H    basis set group =>   2
Atom  56C    basis set group =>   3
Atom  57H    basis set group =>   2
Atom  58H    basis set group =>   2
Atom  59H    basis set group =>   2
Atom  60O    basis set group =>   1
Atom  61H    basis set group =>   2
Atom  62C    basis set group =>   3
Atom  63H    basis set group =>   2
Atom  64H    basis set group =>   2
Atom  65H    basis set group =>   2
Atom  66O    basis set group =>   1
Atom  67H    basis set group =>   2
Atom  68C    basis set group =>   3
Atom  69H    basis set group =>   2
Atom  70H    basis set group =>   2
Atom  71H    basis set group =>   2
Atom  72O    basis set group =>   1
Atom  73H    basis set group =>   2
Atom  74C    basis set group =>   3
Atom  75H    basis set group =>   2
Atom  76H    basis set group =>   2
Atom  77H    basis set group =>   2
Atom  78O    basis set group =>   1
Atom  79H    basis set group =>   2
Atom  80C    basis set group =>   3
Atom  81H    basis set group =>   2
Atom  82H    basis set group =>   2
Atom  83H    basis set group =>   2
Atom  84O    basis set group =>   1
Atom  85H    basis set group =>   2
Atom  86C    basis set group =>   3
Atom  87H    basis set group =>   2
Atom  88H    basis set group =>   2
Atom  89H    basis set group =>   2
Atom  90O    basis set group =>   1
Atom  91H    basis set group =>   2
Atom  92C    basis set group =>   3
Atom  93H    basis set group =>   2
Atom  94H    basis set group =>   2
Atom  95H    basis set group =>   2
Atom  96O    basis set group =>   1
Atom  97H    basis set group =>   2
Atom  98C    basis set group =>   3
Atom  99H    basis set group =>   2
Atom 100H    basis set group =>   2
Atom 101H    basis set group =>   2
Atom 102O    basis set group =>   1
Atom 103H    basis set group =>   2
Atom 104C    basis set group =>   3
Atom 105H    basis set group =>   2
Atom 106H    basis set group =>   2
Atom 107H    basis set group =>   2
Atom 108O    basis set group =>   1
Atom 109H    basis set group =>   2
Atom 110C    basis set group =>   3
Atom 111H    basis set group =>   2
Atom 112H    basis set group =>   2
Atom 113H    basis set group =>   2
Atom 114O    basis set group =>   1
Atom 115H    basis set group =>   2
Atom 116C    basis set group =>   3
Atom 117H    basis set group =>   2
Atom 118H    basis set group =>   2
Atom 119H    basis set group =>   2


           ************************************************************
           *        Program running with 24 parallel MPI-processes    *
           *              working on a common directory               *
           ************************************************************
------------------------------------------------------------------------------
                           ORCA GTO INTEGRAL CALCULATION
------------------------------------------------------------------------------

                         BASIS SET STATISTICS AND STARTUP INFO

 # of primitive gaussian shells          ... 1280
 # of primitive gaussian functions       ... 2480
 # of contracted shells                  ...  760
 # of contracted basis functions         ... 1720
 Highest angular momentum                ...    3
 Maximum contraction depth               ...    6
 Integral package used                   ... LIBINT
 Integral threshhold            Thresh   ...  2.500e-11
 Primitive cut-off              TCut     ...  2.500e-12


------------------------------ INTEGRAL EVALUATION ----------------------------


 * One electron integrals 
 Pre-screening matrix                    ... done
 Shell pair data                         ... done (   0.040 sec)



           ************************************************************
           *        Program running with 24 parallel MPI-processes    *
           *              working on a common directory               *
           ************************************************************
-------------------------------------------------------------------------------
                                 ORCA SCF
-------------------------------------------------------------------------------

------------
SCF SETTINGS
------------
Hamiltonian:
 Ab initio Hamiltonian  Method          .... Hartree-Fock(GTOs)


General Settings:
 Integral files         IntName         .... input
 Hartree-Fock type      HFTyp           .... RHF
 Total Charge           Charge          ....    0
 Multiplicity           Mult            ....    1
 Number of Electrons    NEL             ....  360
 Basis Dimension        Dim             .... 1720
 Nuclear Repulsion      ENuc            ....   5774.6342438859 Eh

Convergence Acceleration:
 DIIS                   CNVDIIS         .... on
   Start iteration      DIISMaxIt       ....    12
   Startup error        DIISStart       ....  0.200000
   # of expansion vecs  DIISMaxEq       ....     5
   Bias factor          DIISBfac        ....   1.050
   Max. coefficient     DIISMaxC        ....  10.000
 Newton-Raphson         CNVNR           .... off
 SOSCF                  CNVSOSCF        .... on
   Start iteration      SOSCFMaxIt      ....   150
   Startup grad/error   SOSCFStart      ....  0.003300
 Level Shifting         CNVShift        .... on
   Level shift para.    LevelShift      ....    0.2500
   Turn off err/grad.   ShiftErr        ....    0.0010
 Zerner damping         CNVZerner       .... off
 Static damping         CNVDamp         .... on
   Fraction old density DampFac         ....    0.7000
   Max. Damping (<1)    DampMax         ....    0.9800
   Min. Damping (>=0)   DampMin         ....    0.0000
   Turn off err/grad.   DampErr         ....    0.1000
 Fernandez-Rico         CNVRico         .... off

SCF Procedure:
 Maximum # iterations   MaxIter         ....   125
 SCF integral mode      SCFMode         .... Direct
   Integral package                     .... LIBINT
 Reset frequency        DirectResetFreq ....    20
 Integral Threshold     Thresh          ....  2.500e-11 Eh
 Primitive CutOff       TCut            ....  2.500e-12 Eh

Convergence Tolerance:
 Convergence Check Mode ConvCheckMode   .... Total+1el-Energy
 Convergence forced     ConvForced      .... 1
 Energy Change          TolE            ....  1.000e-08 Eh
 1-El. energy change                    ....  1.000e-05 Eh
 Orbital Gradient       TolG            ....  1.000e-05
 Orbital Rotation angle TolX            ....  1.000e-05
 DIIS Error             TolErr          ....  5.000e-07


Diagonalization of the overlap matrix:
Smallest eigenvalue                        ... 4.021e-04
Time for diagonalization                   ...    0.430 sec
Threshold for overlap eigenvalues          ... 1.000e-08
Number of eigenvalues below threshold      ... 0
Time for construction of square roots      ...    0.332 sec
Total time needed                          ...    0.772 sec

-------------------
DFT GRID GENERATION
-------------------

General Integration Accuracy     IntAcc      ...  4.340
Radial Grid Type                 RadialGrid  ... Gauss-Chebyshev
Angular Grid (max. acc.)         AngularGrid ... Lebedev-110
Angular grid pruning method      GridPruning ... 3 (G Style)
Weight generation scheme         WeightScheme... Becke
Basis function cutoff            BFCut       ...    1.0000e-11
Integration weight cutoff        WCut        ...    1.0000e-14
Grids for H and He will be reduced by one unit

# of grid points (after initial pruning)     ... 130960 (   0.0 sec)
# of grid points (after weights+screening)   ... 114911 (   0.4 sec)
nearest neighbour list constructed           ...    0.0 sec
Grid point re-assignment to atoms done       ...    0.0 sec
Grid point division into batches done        ...    0.1 sec
Reduced shell lists constructed in    0.3 sec

Total number of grid points                  ...   114911
Total number of batches                      ...     1849
Average number of points per batch           ...       62
Average number of grid points per atom       ...      958
Average number of shells per batch           ...   264.75 (34.84%)
Average number of basis functions per batch  ...   501.46 (29.15%)
Average number of large shells per batch     ...   138.34 (52.25%)
Average number of large basis fcns per batch ...   261.58 (52.16%)
Maximum spatial batch extension              ...   4.72,  4.32,  4.39 au
Average spatial batch extension              ...   0.09,  0.09,  0.08 au

Time for grid setup =    0.744 sec

------------------------------
INITIAL GUESS: MODEL POTENTIAL
------------------------------
Loading Hartree-Fock densities                     ... done
Calculating cut-offs                               ... done
Setting up the integral package                    ... done
Initializing the effective Hamiltonian             ... done
Starting the Coulomb interaction                   ... done (   0.7 sec)
Reading the grid                                   ... done
Mapping shells                                     ... done
Starting the XC term evaluation                    ... done (   0.2 sec)
Transforming the Hamiltonian                       ... done (   0.2 sec)
Diagonalizing the Hamiltonian                      ... done (   0.4 sec)
Back transforming the eigenvectors                 ... done (   0.1 sec)
Now organizing SCF variables                       ... done
                      ------------------
                      INITIAL GUESS DONE (   2.5 sec)
                      ------------------
--------------
SCF ITERATIONS
--------------
ITER       Energy         Delta-E        Max-DP      RMS-DP      [F,P]     Damp
               ***  Starting incremental Fock matrix formation  ***
  0  -2299.3635234830   0.000000000000 0.03799706  0.00031746  0.2921868 0.7000
  1  -2300.2068274870  -0.843304004018 0.02595220  0.00023882  0.2183745 0.7000
                               ***Turning on DIIS***
  2  -2300.6972126718  -0.490385184747 0.01562111  0.00014817  0.1627807 0.7000
  3  -2306.7972029458  -6.099990274021 0.00854320  0.00008512  0.1199243 0.7000
  4  -2305.7656995672   1.031503378663 0.01868188  0.00020908  0.0845500 0.0000
  5  -2301.9018928586   3.863806708575 0.00302395  0.00002969  0.0067655 0.0000
                      *** Initiating the SOSCF procedure ***
                           *** Shutting down DIIS ***
                      *** Re-Reading the Fockian *** 
                      *** Removing any level shift *** 
ITER      Energy       Delta-E        Grad      Rot      Max-DP    RMS-DP
  6  -2301.73922598   0.1626668784  0.000439  0.000439  0.001628  0.000015
               *** Restarting incremental Fock matrix formation ***
  7  -2301.70021348   0.0390125018  0.000220  0.000273  0.000652  0.000008
  8  -2301.70025711  -0.0000436274  0.000116  0.000154  0.000533  0.000006
  9  -2301.70026733  -0.0000102287  0.000016  0.000020  0.000106  0.000001
 10  -2301.70026771  -0.0000003762  0.000005  0.000011  0.000029  0.000000
                  ***Gradient check signals convergence***
              ***Rediagonalizing the Fockian in SOSCF/NRSCF***

               *****************************************************
               *                     SUCCESS                       *
               *           SCF CONVERGED AFTER  11 CYCLES          *
               *****************************************************


----------------
TOTAL SCF ENERGY
----------------

Total Energy       :        -2301.70026775 Eh          -62632.44846 eV

Components:
Nuclear Repulsion  :         5774.63424389 Eh          157135.78641 eV
Electronic Energy  :        -8076.33451163 Eh         -219768.23486 eV
One Electron Energy:       -14678.38575984 Eh         -399419.18260 eV
Two Electron Energy:         6602.05124821 Eh          179650.94774 eV

Virial components:
Potential Energy   :        -4601.84810821 Eh         -125222.65322 eV
Kinetic Energy     :         2300.14784046 Eh           62590.20476 eV
Virial Ratio       :            2.00067493


---------------
SCF CONVERGENCE
---------------

  Last Energy change         ...   -3.6789e-08  Tolerance :   1.0000e-08
  Last MAX-Density change    ...    7.8096e-06  Tolerance :   1.0000e-07
  Last RMS-Density change    ...    6.7492e-08  Tolerance :   5.0000e-09
  Last Orbital Gradient      ...    1.7771e-06  Tolerance :   1.0000e-05
  Last Orbital Rotation      ...    4.9714e-06  Tolerance :   1.0000e-05

             **** THE GBW FILE WAS UPDATED (input.gbw) ****
             **** DENSITY FILE WAS UPDATED (input.scfp) ****
             **** ENERGY FILE WAS UPDATED (input.en.tmp) ****
             **** THE GBW FILE WAS UPDATED (input.gbw) ****
             **** DENSITY FILE WAS UPDATED (input.scfp) ****
----------------
ORBITAL ENERGIES
----------------

  NO   OCC          E(Eh)            E(eV) 
   0   2.0000     -20.577710      -559.9480 
   1   2.0000     -20.560066      -559.4678 
   2   2.0000     -20.559703      -559.4580 
   3   2.0000     -20.558533      -559.4261 
   4   2.0000     -20.558218      -559.4176 
   5   2.0000     -20.558002      -559.4117 
   6   2.0000     -20.555593      -559.3461 
   7   2.0000     -20.554175      -559.3075 
   8   2.0000     -20.544744      -559.0509 
   9   2.0000     -20.543345      -559.0128 
  10   2.0000     -20.542537      -558.9909 
  11   2.0000     -20.534611      -558.7752 
  12   2.0000     -20.531448      -558.6891 
  13   2.0000     -20.530925      -558.6749 
  14   2.0000     -20.530593      -558.6658 
  15   2.0000     -20.530331      -558.6587 
  16   2.0000     -20.527466      -558.5808 
  17   2.0000     -20.520403      -558.3886 
  18   2.0000     -20.518646      -558.3408 
  19   2.0000     -20.496913      -557.7494 
  20   2.0000     -11.291858      -307.2671 
  21   2.0000     -11.282684      -307.0174 
  22   2.0000     -11.280328      -306.9533 
  23   2.0000     -11.271422      -306.7110 
  24   2.0000     -11.268010      -306.6181 
  25   2.0000     -11.263439      -306.4937 
  26   2.0000     -11.259641      -306.3904 
  27   2.0000     -11.257791      -306.3401 
  28   2.0000     -11.253912      -306.2345 
  29   2.0000     -11.253598      -306.2260 
  30   2.0000     -11.252799      -306.2042 
  31   2.0000     -11.251935      -306.1807 
  32   2.0000     -11.251927      -306.1805 
  33   2.0000     -11.243236      -305.9440 
  34   2.0000     -11.242434      -305.9222 
  35   2.0000     -11.239309      -305.8372 
  36   2.0000     -11.237010      -305.7746 
  37   2.0000     -11.236518      -305.7612 
  38   2.0000     -11.230256      -305.5908 
  39   2.0000     -11.224970      -305.4470 
  40   2.0000      -1.398380       -38.0519 
  41   2.0000      -1.392355       -37.8879 
  42   2.0000      -1.389016       -37.7970 
  43   2.0000      -1.378684       -37.5159 
  44   2.0000      -1.367791       -37.2195 
  45   2.0000      -1.367419       -37.2094 
  46   2.0000      -1.355264       -36.8786 
  47   2.0000      -1.352209       -36.7955 
  48   2.0000      -1.347599       -36.6700 
  49   2.0000      -1.343642       -36.5624 
  50   2.0000      -1.342452       -36.5300 
  51   2.0000      -1.342291       -36.5256 
  52   2.0000      -1.340948       -36.4890 
  53   2.0000      -1.340194       -36.4685 
  54   2.0000      -1.330914       -36.2160 
  55   2.0000      -1.329135       -36.1676 
  56   2.0000      -1.327323       -36.1183 
  57   2.0000      -1.324941       -36.0535 
  58   2.0000      -1.322820       -35.9958 
  59   2.0000      -1.293989       -35.2112 
  60   2.0000      -0.956236       -26.0205 
  61   2.0000      -0.936320       -25.4786 
  62   2.0000      -0.932710       -25.3803 
  63   2.0000      -0.922497       -25.1024 
  64   2.0000      -0.919695       -25.0262 
  65   2.0000      -0.919114       -25.0104 
  66   2.0000      -0.915175       -24.9032 
  67   2.0000      -0.914082       -24.8734 
  68   2.0000      -0.913871       -24.8677 
  69   2.0000      -0.912655       -24.8346 
  70   2.0000      -0.911899       -24.8140 
  71   2.0000      -0.906678       -24.6720 
  72   2.0000      -0.906282       -24.6612 
  73   2.0000      -0.900090       -24.4927 
  74   2.0000      -0.896374       -24.3916 
  75   2.0000      -0.892183       -24.2775 
  76   2.0000      -0.890331       -24.2271 
  77   2.0000      -0.882781       -24.0217 
  78   2.0000      -0.882444       -24.0125 
  79   2.0000      -0.869246       -23.6534 
  80   2.0000      -0.723880       -19.6978 
  81   2.0000      -0.710258       -19.3271 
  82   2.0000      -0.708118       -19.2689 
  83   2.0000      -0.707333       -19.2475 
  84   2.0000      -0.706186       -19.2163 
  85   2.0000      -0.695262       -18.9191 
  86   2.0000      -0.694360       -18.8945 
  87   2.0000      -0.688438       -18.7334 
  88   2.0000      -0.685735       -18.6598 
  89   2.0000      -0.685173       -18.6445 
  90   2.0000      -0.682803       -18.5800 
  91   2.0000      -0.670813       -18.2538 
  92   2.0000      -0.669987       -18.2313 
  93   2.0000      -0.669077       -18.2065 
  94   2.0000      -0.667311       -18.1585 
  95   2.0000      -0.666484       -18.1360 
  96   2.0000      -0.664557       -18.0835 
  97   2.0000      -0.663527       -18.0555 
  98   2.0000      -0.660913       -17.9844 
  99   2.0000      -0.654519       -17.8104 
 100   2.0000      -0.652068       -17.7437 
 101   2.0000      -0.641592       -17.4586 
 102   2.0000      -0.639396       -17.3989 
 103   2.0000      -0.639009       -17.3883 
 104   2.0000      -0.633468       -17.2375 
 105   2.0000      -0.632162       -17.2020 
 106   2.0000      -0.621733       -16.9182 
 107   2.0000      -0.620907       -16.8957 
 108   2.0000      -0.619364       -16.8537 
 109   2.0000      -0.616580       -16.7780 
 110   2.0000      -0.615033       -16.7359 
 111   2.0000      -0.613807       -16.7025 
 112   2.0000      -0.613320       -16.6893 
 113   2.0000      -0.612475       -16.6663 
 114   2.0000      -0.611086       -16.6285 
 115   2.0000      -0.609803       -16.5936 
 116   2.0000      -0.608485       -16.5577 
 117   2.0000      -0.606823       -16.5125 
 118   2.0000      -0.603252       -16.4153 
 119   2.0000      -0.601890       -16.3783 
 120   2.0000      -0.599779       -16.3208 
 121   2.0000      -0.597806       -16.2671 
 122   2.0000      -0.596288       -16.2258 
 123   2.0000      -0.595126       -16.1942 
 124   2.0000      -0.592541       -16.1239 
 125   2.0000      -0.592227       -16.1153 
 126   2.0000      -0.588917       -16.0252 
 127   2.0000      -0.588588       -16.0163 
 128   2.0000      -0.586380       -15.9562 
 129   2.0000      -0.584318       -15.9001 
 130   2.0000      -0.581254       -15.8167 
 131   2.0000      -0.577376       -15.7112 
 132   2.0000      -0.575921       -15.6716 
 133   2.0000      -0.570757       -15.5311 
 134   2.0000      -0.568015       -15.4565 
 135   2.0000      -0.562896       -15.3172 
 136   2.0000      -0.562703       -15.3119 
 137   2.0000      -0.558759       -15.2046 
 138   2.0000      -0.556018       -15.1300 
 139   2.0000      -0.536855       -14.6086 
 140   2.0000      -0.518392       -14.1062 
 141   2.0000      -0.513561       -13.9747 
 142   2.0000      -0.505845       -13.7648 
 143   2.0000      -0.502514       -13.6741 
 144   2.0000      -0.500896       -13.6301 
 145   2.0000      -0.497742       -13.5442 
 146   2.0000      -0.495150       -13.4737 
 147   2.0000      -0.493259       -13.4223 
 148   2.0000      -0.491473       -13.3736 
 149   2.0000      -0.487192       -13.2572 
 150   2.0000      -0.484116       -13.1735 
 151   2.0000      -0.482411       -13.1271 
 152   2.0000      -0.480400       -13.0724 
 153   2.0000      -0.478761       -13.0278 
 154   2.0000      -0.475391       -12.9360 
 155   2.0000      -0.473187       -12.8761 
 156   2.0000      -0.471261       -12.8237 
 157   2.0000      -0.467194       -12.7130 
 158   2.0000      -0.463510       -12.6127 
 159   2.0000      -0.460466       -12.5299 
 160   2.0000      -0.458104       -12.4656 
 161   2.0000      -0.456594       -12.4245 
 162   2.0000      -0.453207       -12.3324 
 163   2.0000      -0.451571       -12.2879 
 164   2.0000      -0.447443       -12.1755 
 165   2.0000      -0.444667       -12.1000 
 166   2.0000      -0.440707       -11.9923 
 167   2.0000      -0.440006       -11.9732 
 168   2.0000      -0.439275       -11.9533 
 169   2.0000      -0.433975       -11.8091 
 170   2.0000      -0.431660       -11.7461 
 171   2.0000      -0.428850       -11.6696 
 172   2.0000      -0.425656       -11.5827 
 173   2.0000      -0.423450       -11.5227 
 174   2.0000      -0.422369       -11.4932 
 175   2.0000      -0.419226       -11.4077 
 176   2.0000      -0.414069       -11.2674 
 177   2.0000      -0.409832       -11.1521 
 178   2.0000      -0.406301       -11.0560 
 179   2.0000      -0.397443       -10.8150 
 180   0.0000       0.081892         2.2284 
 181   0.0000       0.104704         2.8491 
 182   0.0000       0.116314         3.1651 
 183   0.0000       0.119504         3.2519 
 184   0.0000       0.124897         3.3986 
 185   0.0000       0.133639         3.6365 
 186   0.0000       0.138853         3.7784 
 187   0.0000       0.141811         3.8589 
 188   0.0000       0.145486         3.9589 
 189   0.0000       0.145827         3.9682 
 190   0.0000       0.150562         4.0970 
 191   0.0000       0.153081         4.1656 
 192   0.0000       0.157203         4.2777 
 193   0.0000       0.161243         4.3877 
 194   0.0000       0.164432         4.4744 
 195   0.0000       0.169890         4.6229 
 196   0.0000       0.173633         4.7248 
 197   0.0000       0.175762         4.7827 
 198   0.0000       0.178432         4.8554 
 199   0.0000       0.179120         4.8741 
 200   0.0000       0.180965         4.9243 
 201   0.0000       0.184854         5.0301 
 202   0.0000       0.187470         5.1013 
 203   0.0000       0.188562         5.1310 
 204   0.0000       0.195263         5.3134 
 205   0.0000       0.197032         5.3615 
 206   0.0000       0.199333         5.4241 
 207   0.0000       0.200137         5.4460 
 208   0.0000       0.203057         5.5255 
 209   0.0000       0.204582         5.5670 
 210   0.0000       0.207470         5.6455 
 211   0.0000       0.209414         5.6984 
 212   0.0000       0.212364         5.7787 
 213   0.0000       0.213863         5.8195 
 214   0.0000       0.214534         5.8378 
 215   0.0000       0.217048         5.9062 
 216   0.0000       0.218776         5.9532 
 217   0.0000       0.220578         6.0022 
 218   0.0000       0.224336         6.1045 
 219   0.0000       0.226654         6.1676 
 220   0.0000       0.229005         6.2315 
 221   0.0000       0.231932         6.3112 
 222   0.0000       0.234255         6.3744 
 223   0.0000       0.235472         6.4075 
 224   0.0000       0.238121         6.4796 
 225   0.0000       0.242025         6.5858 
 226   0.0000       0.242479         6.5982 
 227   0.0000       0.243874         6.6362 
 228   0.0000       0.246764         6.7148 
 229   0.0000       0.249078         6.7778 
 230   0.0000       0.252102         6.8601 
 231   0.0000       0.252737         6.8773 
 232   0.0000       0.255939         6.9645 
 233   0.0000       0.257713         7.0127 
 234   0.0000       0.261890         7.1264 
 235   0.0000       0.262775         7.1505 
 236   0.0000       0.264280         7.1914 
 237   0.0000       0.264534         7.1983 
 238   0.0000       0.266634         7.2555 
 239   0.0000       0.267382         7.2758 
 240   0.0000       0.271920         7.3993 
 241   0.0000       0.273077         7.4308 
 242   0.0000       0.273774         7.4498 
 243   0.0000       0.278018         7.5652 
 244   0.0000       0.280727         7.6390 
 245   0.0000       0.284042         7.7292 
 246   0.0000       0.286156         7.7867 
 247   0.0000       0.290340         7.9005 
 248   0.0000       0.293450         7.9852 
 249   0.0000       0.296081         8.0568 
 250   0.0000       0.297479         8.0948 
 251   0.0000       0.302036         8.2188 
 252   0.0000       0.302679         8.2363 
 253   0.0000       0.304464         8.2849 
 254   0.0000       0.306816         8.3489 
 255   0.0000       0.307933         8.3793 
 256   0.0000       0.311712         8.4821 
 257   0.0000       0.313362         8.5270 
 258   0.0000       0.314614         8.5611 
 259   0.0000       0.316678         8.6172 
 260   0.0000       0.319915         8.7053 
 261   0.0000       0.321971         8.7613 
 262   0.0000       0.322125         8.7655 
 263   0.0000       0.325030         8.8445 
 264   0.0000       0.326058         8.8725 
 265   0.0000       0.331162         9.0114 
 266   0.0000       0.332097         9.0368 
 267   0.0000       0.334697         9.1076 
 268   0.0000       0.334967         9.1149 
 269   0.0000       0.339257         9.2316 
 270   0.0000       0.341469         9.2918 
 271   0.0000       0.344361         9.3705 
 272   0.0000       0.345433         9.3997 
 273   0.0000       0.346993         9.4422 
 274   0.0000       0.349377         9.5070 
 275   0.0000       0.352516         9.5924 
 276   0.0000       0.356857         9.7106 
 277   0.0000       0.358748         9.7620 
 278   0.0000       0.362236         9.8570 
 279   0.0000       0.364960         9.9311 
 280   0.0000       0.371623        10.1124 
 281   0.0000       0.372787        10.1440 
 282   0.0000       0.376986        10.2583 
 283   0.0000       0.378405        10.2969 
 284   0.0000       0.380591        10.3564 
 285   0.0000       0.384288        10.4570 
 286   0.0000       0.385871        10.5001 
 287   0.0000       0.388550        10.5730 
 288   0.0000       0.390148        10.6165 
 289   0.0000       0.394083        10.7235 
 290   0.0000       0.398090        10.8326 
 291   0.0000       0.399991        10.8843 
 292   0.0000       0.404641        11.0108 
 293   0.0000       0.408242        11.1088 
 294   0.0000       0.410023        11.1573 
 295   0.0000       0.414678        11.2840 
 296   0.0000       0.418034        11.3753 
 297   0.0000       0.422489        11.4965 
 298   0.0000       0.424553        11.5527 
 299   0.0000       0.427183        11.6242 
 300   0.0000       0.434482        11.8229 
 301   0.0000       0.439403        11.9568 
 302   0.0000       0.442291        12.0353 
 303   0.0000       0.444510        12.0957 
 304   0.0000       0.448200        12.1961 
 305   0.0000       0.452579        12.3153 
 306   0.0000       0.454781        12.3752 
 307   0.0000       0.457814        12.4577 
 308   0.0000       0.466523        12.6947 
 309   0.0000       0.471031        12.8174 
 310   0.0000       0.471882        12.8406 
 311   0.0000       0.472899        12.8682 
 312   0.0000       0.478770        13.0280 
 313   0.0000       0.481535        13.1032 
 314   0.0000       0.487939        13.2775 
 315   0.0000       0.491887        13.3849 
 316   0.0000       0.494643        13.4599 
 317   0.0000       0.495469        13.4824 
 318   0.0000       0.498320        13.5600 
 319   0.0000       0.504060        13.7162 
 320   0.0000       0.507843        13.8191 
 321   0.0000       0.509356        13.8603 
 322   0.0000       0.512235        13.9386 
 323   0.0000       0.514486        13.9999 
 324   0.0000       0.515658        14.0318 
 325   0.0000       0.521383        14.1876 
 326   0.0000       0.523052        14.2330 
 327   0.0000       0.524010        14.2590 
 328   0.0000       0.526015        14.3136 
 329   0.0000       0.530114        14.4251 
 330   0.0000       0.531464        14.4619 
 331   0.0000       0.534647        14.5485 
 332   0.0000       0.538084        14.6420 
 333   0.0000       0.538629        14.6568 
 334   0.0000       0.544684        14.8216 
 335   0.0000       0.544816        14.8252 
 336   0.0000       0.546782        14.8787 
 337   0.0000       0.550620        14.9831 
 338   0.0000       0.555636        15.1196 
 339   0.0000       0.557298        15.1648 
 340   0.0000       0.557444        15.1688 
 341   0.0000       0.562423        15.3043 
 342   0.0000       0.564429        15.3589 
 343   0.0000       0.567802        15.4507 
 344   0.0000       0.568617        15.4729 
 345   0.0000       0.573516        15.6062 
 346   0.0000       0.574283        15.6270 
 347   0.0000       0.576695        15.6927 
 348   0.0000       0.579178        15.7602 
 349   0.0000       0.580625        15.7996 
 350   0.0000       0.582406        15.8481 
 351   0.0000       0.585010        15.9189 
 352   0.0000       0.587453        15.9854 
 353   0.0000       0.589854        16.0507 
 354   0.0000       0.591777        16.1031 
 355   0.0000       0.593252        16.1432 
 356   0.0000       0.595338        16.2000 
 357   0.0000       0.600247        16.3335 
 358   0.0000       0.604584        16.4516 
 359   0.0000       0.607693        16.5362 
 360   0.0000       0.608707        16.5637 
 361   0.0000       0.610325        16.6078 
 362   0.0000       0.612725        16.6731 
 363   0.0000       0.616142        16.7661 
 364   0.0000       0.617283        16.7971 
 365   0.0000       0.618264        16.8238 
 366   0.0000       0.620371        16.8812 
 367   0.0000       0.622208        16.9311 
 368   0.0000       0.623411        16.9639 
 369   0.0000       0.626954        17.0603 
 370   0.0000       0.628920        17.1138 
 371   0.0000       0.630202        17.1487 
 372   0.0000       0.632020        17.1981 
 373   0.0000       0.633877        17.2487 
 374   0.0000       0.636058        17.3080 
 375   0.0000       0.638784        17.3822 
 376   0.0000       0.640033        17.4162 
 377   0.0000       0.640878        17.4392 
 378   0.0000       0.642330        17.4787 
 379   0.0000       0.644879        17.5480 
 380   0.0000       0.647429        17.6174 
 381   0.0000       0.649195        17.6655 
 382   0.0000       0.652026        17.7425 
 383   0.0000       0.655839        17.8463 
 384   0.0000       0.659128        17.9358 
 385   0.0000       0.660552        17.9745 
 386   0.0000       0.665105        18.0984 
 387   0.0000       0.666622        18.1397 
 388   0.0000       0.667372        18.1601 
 389   0.0000       0.668411        18.1884 
 390   0.0000       0.670945        18.2573 
 391   0.0000       0.673575        18.3289 
 392   0.0000       0.673796        18.3349 
 393   0.0000       0.674549        18.3554 
 394   0.0000       0.675148        18.3717 
 395   0.0000       0.678927        18.4745 
 396   0.0000       0.682053        18.5596 
 397   0.0000       0.683592        18.6015 
 398   0.0000       0.684624        18.6296 
 399   0.0000       0.686588        18.6830 
 400   0.0000       0.689773        18.7697 
[...]
  VA   - Mayer's total valence
  BVA  - Mayer's bonded valence
  FA   - Mayer's free valence

  ATOM       NA         ZA         QA         VA         BVA        FA
  0 O      8.5955     8.0000    -0.5955     1.7346     1.7346    -0.0000
  1 H      0.6199     1.0000     0.3801     0.8759     0.8759     0.0000
  2 C      6.0288     6.0000    -0.0288     3.9126     3.9126    -0.0000
  3 H      0.9357     1.0000     0.0643     0.9452     0.9452     0.0000
  4 H      0.9312     1.0000     0.0688     0.9567     0.9567    -0.0000
  5 H      0.9051     1.0000     0.0949     0.9701     0.9701     0.0000
  6 O      8.5922     8.0000    -0.5922     1.7345     1.7345     0.0000
  7 H      0.6347     1.0000     0.3653     0.8860     0.8860    -0.0000
  8 C      6.0737     6.0000    -0.0737     3.8541     3.8541     0.0000
  9 H      0.8807     1.0000     0.1193     0.9606     0.9606    -0.0000
 10 H      0.9248     1.0000     0.0752     0.9558     0.9558     0.0000
 11 H      0.8904     1.0000     0.1096     0.9927     0.9927     0.0000
 12 O      8.6042     8.0000    -0.6042     1.7317     1.7317     0.0000
 13 H      0.6129     1.0000     0.3871     0.8650     0.8650     0.0000
 14 C      6.1037     6.0000    -0.1037     3.8828     3.8828    -0.0000
 15 H      0.9005     1.0000     0.0995     0.9604     0.9604    -0.0000
 16 H      0.9000     1.0000     0.1000     0.9619     0.9619     0.0000
 17 H      0.8613     1.0000     0.1387     0.9560     0.9560     0.0000
 18 O      8.6095     8.0000    -0.6095     1.7199     1.7199     0.0000
 19 H      0.6504     1.0000     0.3496     0.8828     0.8828     0.0000
 20 C      6.0880     6.0000    -0.0880     3.7840     3.7840     0.0000
 21 H      0.8703     1.0000     0.1297     0.9775     0.9775     0.0000
 22 H      0.8479     1.0000     0.1521     0.9665     0.9665     0.0000
 23 H      0.9114     1.0000     0.0886     0.9659     0.9659     0.0000
 24 O      8.6158     8.0000    -0.6158     1.7066     1.7066     0.0000
 25 H      0.6129     1.0000     0.3871     0.8996     0.8996     0.0000
 26 C      6.0893     6.0000    -0.0893     3.8800     3.8800    -0.0000
 27 H      0.9212     1.0000     0.0788     0.9613     0.9613     0.0000
 28 H      0.9244     1.0000     0.0756     0.9666     0.9666     0.0000
 29 H      0.8700     1.0000     0.1300     0.9823     0.9823    -0.0000
 30 O      8.5706     8.0000    -0.5706     1.7544     1.7544     0.0000
 31 H      0.6331     1.0000     0.3669     0.8839     0.8839     0.0000
 32 C      6.0759     6.0000    -0.0759     3.8668     3.8668     0.0000
 33 H      0.8874     1.0000     0.1126     0.9621     0.9621     0.0000
 34 H      0.8802     1.0000     0.1198     0.9615     0.9615     0.0000
 35 H      0.9481     1.0000     0.0519     0.9635     0.9635     0.0000
 36 O      8.5441     8.0000    -0.5441     1.7776     1.7776    -0.0000
 37 H      0.6700     1.0000     0.3300     0.9019     0.9019    -0.0000
 38 C      6.0738     6.0000    -0.0738     3.9084     3.9084    -0.0000
 39 H      0.9198     1.0000     0.0802     0.9689     0.9689     0.0000
 40 H      0.8785     1.0000     0.1215     0.9490     0.9490     0.0000
 41 H      0.9151     1.0000     0.0849     0.9677     0.9677    -0.0000
 42 O      8.5607     8.0000    -0.5607     1.7554     1.7554    -0.0000
 43 H      0.6412     1.0000     0.3588     0.8873     0.8873    -0.0000
 44 C      6.0552     6.0000    -0.0552     3.9309     3.9309    -0.0000
 45 H      0.9134     1.0000     0.0866     0.9581     0.9581    -0.0000
 46 H      0.9063     1.0000     0.0937     0.9605     0.9605     0.0000
 47 H      0.9283     1.0000     0.0717     0.9641     0.9641     0.0000
 48 O      8.5462     8.0000    -0.5462     1.7495     1.7495    -0.0000
 49 H      0.6658     1.0000     0.3342     0.8947     0.8947     0.0000
 50 C      6.0672     6.0000    -0.0672     3.8926     3.8926    -0.0000
 51 H      0.8937     1.0000     0.1063     0.9586     0.9586    -0.0000
 52 H      0.9472     1.0000     0.0528     0.9571     0.9571    -0.0000
 53 H      0.8799     1.0000     0.1201     0.9587     0.9587     0.0000
 54 O      8.5402     8.0000    -0.5402     1.8063     1.8063     0.0000
 55 H      0.6683     1.0000     0.3317     0.9040     0.9040     0.0000
 56 C      6.0951     6.0000    -0.0951     3.9006     3.9006    -0.0000
 57 H      0.8769     1.0000     0.1231     0.9485     0.9485     0.0000
 58 H      0.9184     1.0000     0.0816     0.9650     0.9650     0.0000
 59 H      0.9019     1.0000     0.0981     0.9637     0.9637    -0.0000
 60 O      8.5597     8.0000    -0.5597     1.7841     1.7841     0.0000
 61 H      0.6519     1.0000     0.3481     0.8951     0.8951    -0.0000
 62 C      6.0206     6.0000    -0.0206     3.8764     3.8764    -0.0000
 63 H      0.9083     1.0000     0.0917     0.9599     0.9599    -0.0000
 64 H      0.9060     1.0000     0.0940     0.9757     0.9757     0.0000
 65 H      0.9550     1.0000     0.0450     0.9508     0.9508    -0.0000
 66 O      8.5713     8.0000    -0.5713     1.7751     1.7751     0.0000
 67 H      0.6706     1.0000     0.3294     0.9251     0.9251    -0.0000
 68 C      6.0321     6.0000    -0.0321     3.8695     3.8695    -0.0000
 69 H      0.9138     1.0000     0.0862     0.9641     0.9641    -0.0000
 70 H      0.9143     1.0000     0.0857     0.9373     0.9373    -0.0000
 71 H      0.9140     1.0000     0.0860     0.9590     0.9590    -0.0000
 72 O      8.5371     8.0000    -0.5371     1.7893     1.7893    -0.0000
 73 H      0.6579     1.0000     0.3421     0.8937     0.8937     0.0000
 74 C      6.0647     6.0000    -0.0647     3.9118     3.9118    -0.0000
 75 H      0.9023     1.0000     0.0977     0.9630     0.9630    -0.0000
 76 H      0.9245     1.0000     0.0755     0.9558     0.9558    -0.0000
 77 H      0.9102     1.0000     0.0898     0.9622     0.9622    -0.0000
 78 O      8.5228     8.0000    -0.5228     1.7711     1.7711    -0.0000
 79 H      0.6716     1.0000     0.3284     0.8977     0.8977     0.0000
 80 C      6.0777     6.0000    -0.0777     3.9141     3.9141     0.0000
 81 H      0.8904     1.0000     0.1096     0.9644     0.9644     0.0000
 82 H      0.9286     1.0000     0.0714     0.9651     0.9651    -0.0000
 83 H      0.9084     1.0000     0.0916     0.9354     0.9354    -0.0000
 84 O      8.5574     8.0000    -0.5574     1.7791     1.7791     0.0000
 85 H      0.6682     1.0000     0.3318     0.8995     0.8995    -0.0000
 86 C      6.0710     6.0000    -0.0710     3.9022     3.9022    -0.0000
 87 H      0.8929     1.0000     0.1071     0.9588     0.9588    -0.0000
 88 H      0.9087     1.0000     0.0913     0.9657     0.9657     0.0000
 89 H      0.8935     1.0000     0.1065     0.9499     0.9499    -0.0000
 90 O      8.5358     8.0000    -0.5358     1.8248     1.8248    -0.0000
 91 H      0.6613     1.0000     0.3387     0.8972     0.8972     0.0000
 92 C      6.0979     6.0000    -0.0979     3.9176     3.9176    -0.0000
 93 H      0.9102     1.0000     0.0898     0.9567     0.9567    -0.0000
 94 H      0.9002     1.0000     0.0998     0.9480     0.9480    -0.0000
 95 H      0.8862     1.0000     0.1138     0.9656     0.9656    -0.0000
 96 O      8.6105     8.0000    -0.6105     1.7337     1.7337     0.0000
 97 H      0.6025     1.0000     0.3975     0.8479     0.8479     0.0000
 98 C      6.0851     6.0000    -0.0851     3.8845     3.8845    -0.0000
 99 H      0.8894     1.0000     0.1106     0.9691     0.9691    -0.0000
100 H      0.8888     1.0000     0.1112     0.9637     0.9637    -0.0000
101 H      0.9092     1.0000     0.0908     0.9641     0.9641    -0.0000
102 O      8.5388     8.0000    -0.5388     1.7845     1.7845    -0.0000
103 H      0.6684     1.0000     0.3316     0.8970     0.8970     0.0000
104 C      6.0658     6.0000    -0.0658     3.9148     3.9148     0.0000
105 H      0.9215     1.0000     0.0785     0.9466     0.9466    -0.0000
106 H      0.8922     1.0000     0.1078     0.9575     0.9575    -0.0000
107 H      0.9099     1.0000     0.0901     0.9685     0.9685     0.0000
108 O      8.5638     8.0000    -0.5638     1.7733     1.7733    -0.0000
109 H      0.6843     1.0000     0.3157     0.9144     0.9144    -0.0000
110 C      6.0699     6.0000    -0.0699     3.8501     3.8501     0.0000
111 H      0.8913     1.0000     0.1087     0.9601     0.9601    -0.0000
112 H      0.8748     1.0000     0.1252     0.9644     0.9644    -0.0000
113 H      0.9266     1.0000     0.0734     0.9686     0.9686    -0.0000
114 O      8.5421     8.0000    -0.5421     1.7998     1.7998    -0.0000
115 H      0.6780     1.0000     0.3220     0.9059     0.9059    -0.0000
116 C      6.0785     6.0000    -0.0785     3.9078     3.9078    -0.0000
117 H      0.8886     1.0000     0.1114     0.9605     0.9605    -0.0000
118 H      0.8984     1.0000     0.1016     0.9529     0.9529    -0.0000
119 H      0.9154     1.0000     0.0846     0.9616     0.9616    -0.0000

  Mayer bond orders larger than 0.100000
B(  0-O ,  1-H ) :   0.8254 B(  0-O ,  2-C ) :   0.9341 B(  2-C ,  3-H ) :   0.9855 
B(  2-C ,  4-H ) :   0.9951 B(  2-C ,  5-H ) :   0.9989 B(  6-O ,  7-H ) :   0.8580 
B(  6-O ,  8-C ) :   0.8745 B(  8-C ,  9-H ) :   0.9815 B(  8-C , 10-H ) :   1.0052 
B(  8-C , 11-H ) :   0.9956 B( 12-O , 13-H ) :   0.8392 B( 12-O , 14-C ) :   0.9017 
B( 14-C , 15-H ) :   0.9817 B( 14-C , 16-H ) :   0.9879 B( 14-C , 17-H ) :   0.9903 
B( 18-O , 19-H ) :   0.8679 B( 18-O , 20-C ) :   0.8378 B( 20-C , 21-H ) :   0.9868 
B( 20-C , 22-H ) :   0.9782 B( 20-C , 23-H ) :   0.9983 B( 24-O , 25-H ) :   0.8216 
B( 24-O , 26-C ) :   0.9054 B( 26-C , 27-H ) :   0.9920 B( 26-C , 28-H ) :   0.9852 
B( 26-C , 29-H ) :   0.9831 B( 30-O , 31-H ) :   0.8597 B( 30-O , 32-C ) :   0.8982 
B( 32-C , 33-H ) :   0.9897 B( 32-C , 34-H ) :   0.9854 B( 32-C , 35-H ) :   0.9964 
B( 36-O , 37-H ) :   0.8942 B( 36-O , 38-C ) :   0.9218 B( 38-C , 39-H ) :   0.9816 
B( 38-C , 40-H ) :   0.9862 B( 38-C , 41-H ) :   1.0025 B( 42-O , 43-H ) :   0.8563 
B( 42-O , 44-C ) :   0.9412 B( 44-C , 45-H ) :   0.9875 B( 44-C , 46-H ) :   0.9909 
B( 44-C , 47-H ) :   1.0025 B( 48-O , 49-H ) :   0.8917 B( 48-O , 50-C ) :   0.8964 
B( 50-C , 51-H ) :   0.9806 B( 50-C , 52-H ) :   1.0131 B( 50-C , 53-H ) :   0.9888 
B( 54-O , 55-H ) :   0.8874 B( 54-O , 56-C ) :   0.9380 B( 56-C , 57-H ) :   0.9803 
B( 56-C , 58-H ) :   0.9921 B( 56-C , 59-H ) :   0.9844 B( 60-O , 61-H ) :   0.8711 
B( 60-O , 62-C ) :   0.9298 B( 62-C , 63-H ) :   0.9844 B( 62-C , 64-H ) :   0.9975 
B( 62-C , 65-H ) :   0.9842 B( 66-O , 67-H ) :   0.8751 B( 66-O , 68-C ) :   0.9314 
B( 68-C , 69-H ) :   0.9884 B( 68-C , 70-H ) :   0.9777 B( 68-C , 71-H ) :   0.9902 
B( 72-O , 73-H ) :   0.8807 B( 72-O , 74-C ) :   0.9353 B( 74-C , 75-H ) :   0.9905 
B( 74-C , 76-H ) :   0.9947 B( 74-C , 77-H ) :   0.9924 B( 78-O , 79-H ) :   0.8885 
B( 78-O , 80-C ) :   0.9256 B( 80-C , 81-H ) :   0.9904 B( 80-C , 82-H ) :   0.9985 
B( 80-C , 83-H ) :   0.9891 B( 84-O , 85-H ) :   0.8921 B( 84-O , 86-C ) :   0.9183 
B( 86-C , 87-H ) :   0.9868 B( 86-C , 88-H ) :   1.0011 B( 86-C , 89-H ) :   0.9891 
B( 90-O , 91-H ) :   0.8898 B( 90-O , 92-C ) :   0.9481 B( 92-C , 93-H ) :   0.9860 
B( 92-C , 94-H ) :   0.9890 B( 92-C , 95-H ) :   0.9910 B( 96-O , 97-H ) :   0.8119 
B( 96-O , 98-C ) :   0.9056 B( 98-C , 99-H ) :   0.9869 B( 98-C ,100-H ) :   0.9938 
B( 98-C ,101-H ) :   0.9859 B(102-O ,103-H ) :   0.8921 B(102-O ,104-C ) :   0.9353 
B(104-C ,105-H ) :   0.9814 B(104-C ,106-H ) :   0.9916 B(104-C ,107-H ) :   1.0051 
B(108-O ,109-H ) :   0.9011 B(108-O ,110-C ) :   0.8989 B(110-C ,111-H ) :   0.9812 
B(110-C ,112-H ) :   0.9994 B(110-C ,113-H ) :   0.9947 B(114-O ,115-H ) :   0.8987 
B(114-O ,116-C ) :   0.9354 B(116-C ,117-H ) :   0.9871 B(116-C ,118-H ) :   0.9833 
B(116-C ,119-H ) :   0.9945 

-------
TIMINGS
-------

Total SCF time: 0 days 0 hours 13 min 9 sec 

Total time                  ....     789.750 sec
Sum of individual times     ....     785.006 sec  ( 99.4%)

Fock matrix formation       ....     770.720 sec  ( 97.6%)
Diagonalization             ....       3.646 sec  (  0.5%)
Density matrix formation    ....       0.467 sec  (  0.1%)
Population analysis         ....       0.934 sec  (  0.1%)
Initial guess               ....       1.735 sec  (  0.2%)
Orbital Transformation      ....       0.000 sec  (  0.0%)
Orbital Orthonormalization  ....       0.000 sec  (  0.0%)
DIIS solution               ....       3.845 sec  (  0.5%)
SOSCF solution              ....       2.915 sec  (  0.4%)


           ************************************************************
           *        Program running with 24 parallel MPI-processes    *
           *              working on a common directory               *
           ************************************************************

------------------------------------------------------------------------------
                                ORCA  MP2 
------------------------------------------------------------------------------

Freezing NCore=80 chemical core electrons

-------------
RI-MP2 ENERGY
-------------
Dimension of the basis                    ... 1720
Memory devoted to MP2                     ... 8000 MB   
Data format for buffers                   ... DOUBLE
Compression type for matrix containers    ... UNCOMPRESSED
Overall scaling of the MP2 energy         ...   1.000e+00
Calculating two index integrals           ... done (    0.116 sec)
Cholesky decomposition of V**-1           ... done (    1.773 sec)

-----------------
RI-TRANSFORMATION (AUX index driven)
-----------------

Dimension of the orbital-basis         ... 1720
Dimension of the aux-basis             ... 4240
Transformation of internal/external MOs...   40- 179 to  180-1719
Number Format for Storage              ... Double (8 Byte)
Integral mode                          ... Direct

First Phase: integral generation and transformation of MO indices
  Aux angular momentum 0               ... done (    1.913 sec)
  Aux angular momentum 1               ... done (    3.077 sec)
  Aux angular momentum 2               ... done (    2.945 sec)
  Aux angular momentum 3               ... done (    1.908 sec)
  Aux angular momentum 4               ... done (    0.977 sec)
Closing buffer VIA ( 6.81 GB; CompressionRatio= 1.00)
  Phase 1 completed in    11.403 sec
Second Phase: sorting and transformation of aux index

IA-Transformation
Memory available                       ... 7635 MB 
Max. # MO pairs treated in a batch     ... 6    
# of internal orbitals                 ... 140
# batches for internal orbitals        ... 1
Closing buffer IAV ( 0.29 GB; CompressionRatio= 1.00)
(ia|v) transformation done in     8.819 sec

  Phase 2 completed in    19.128 sec
RI-Integral transformation completed in    30.544 sec
Opening buffers                              ... done

Starting loop over batches of integrals:

Operator 0  - window                       ... ( 40-179)x(180-1719)
Operator 0  - Memory available             ...  8000 MB
Operator 0  - Memory needed per MO         ...  49.8 MB
Operator 0  - Number of orbitals per batch ... 6
Operator 0  - Number of batches            ... 1

OPERATOR  0   PASS   0:  MOs    40 ...   45 +   46 ...   51 +   52 ...   57 +   58 ...   63
                            +   64 ...   69 +   70 ...   75 +   76 ...   81 +   82 ...   87
                            +   88 ...   93 +   94 ...   99 +  100 ...  105 +  106 ...  111
                            +  112 ...  117 +  118 ...  123 +  124 ...  129 +  130 ...  135
                            +  136 ...  141 +  142 ...  147 +  148 ...  153 +  154 ...  159
                            +  160 ...  165 +  166 ...  171 +  172 ...  177 +  178 ...  179
  Reading integrals       ... ok
  Internal MO  42
  Internal MO  45
Time spent in pair loops =     8.079 sec
Deleting buffer (Ka|jb)[aa] ...done

-----------------------------------------------
 RI-MP2 CORRELATION ENERGY:     -8.407447621 Eh
-----------------------------------------------


-------
TIMINGS
-------

Total time                :  331.626 sec
Integral trafo            :   30.562 sec (  9.2%)
I/O of integrals          :    0.320 sec (  0.1%)
K(i,j) Operators          :    6.955 sec (  2.1%)
T(i,j) pair energies      :    0.503 sec (  0.2%)
V-calculation             :    0.116 sec (  0.0%)
V**(-1/2)                 :    1.773 sec (  0.5%)
Gamma(ia|P)               :    0.000 sec (  0.0%)
Gamma-Trafo               :    0.000 sec (  0.0%)
D(virtual)                :    0.000 sec (  0.0%)
D(internal)               :    0.000 sec (  0.0%)
W(virtual)                :    0.000 sec (  0.0%)
W(internal)               :    0.000 sec (  0.0%)
L(virtual)                :    0.000 sec (  0.0%)
L(internal)               :    0.000 sec (  0.0%)
G(D)                      :    0.000 sec (  0.0%)
G(Z)                      :    0.000 sec (  0.0%)
Z-Vector Solution         :    0.000 sec (  0.0%)
3-Index Derivative        :    0.000 sec (  0.0%)
2-Index Derivative        :    0.000 sec (  0.0%)
Separable Gradient        :    0.000 sec (  0.0%)


---------------------------------------
MP2 TOTAL ENERGY:    -2310.107715368 Eh
---------------------------------------

-------------------------   --------------------
FINAL SINGLE POINT ENERGY     -2310.107715368017
-------------------------   --------------------


                            ***************************************
                            *     ORCA property calculations      *
                            ***************************************


  WARNING: The energy has been calculated at the MP2 level but the densities
           used in the property calculations are still SCF densities
           MP2 response densities have not been calculated 
           use %mp2 Density relaxed end
           or  %mp2 Density unrelaxed end

                                    ---------------------
                                    Active property flags
                                    ---------------------
   (+) Dipole Moment


------------------------------------------------------------------------------
                       ORCA ELECTRIC PROPERTIES CALCULATION
------------------------------------------------------------------------------

Dipole Moment Calculation                       ... on
Quadrupole Moment Calculation                   ... off
Polarizability Calculation                      ... off
GBWName                                         ... input.gbw
Electron density file                           ... input.scfp
The origin for moment calculation is the CENTER OF MASS  = ( 0.733337,  0.013897 -0.050246)

-------------
DIPOLE MOMENT
-------------
                                X             Y             Z
Electronic contribution:     -4.95695       6.62017      -1.95585
Nuclear contribution   :      7.70909      -9.29002       3.86164
                        -----------------------------------------
Total Dipole Moment    :      2.75214      -2.66985       1.90579
                        -----------------------------------------
Magnitude (a.u.)       :      4.28187
Magnitude (Debye)      :     10.88365



--------------------
Rotational spectrum 
--------------------
 
Rotational constants in cm-1:     0.001765     0.001256     0.001137 
Rotational constants in MHz :    52.906528    37.644728    34.073968 

 Dipole components along the rotational axes: 
x,y,z [a.u.] :    -2.552545    -0.173955     3.433461 
x,y,z [Debye]:    -6.488054    -0.442159     8.727165 

 

Timings for individual modules:

Sum of individual times         ...     1131.774 sec (=  18.863 min)
GTO integral calculation        ...        4.950 sec (=   0.083 min)   0.4 %
SCF iterations                  ...      791.227 sec (=  13.187 min)  69.9 %
MP2 module                      ...      335.597 sec (=   5.593 min)  29.7 %
                             ****ORCA TERMINATED NORMALLY****
TOTAL RUN TIME: 0 days 0 hours 18 minutes 53 seconds 764 msec
