
                                 *****************
                                 * O   R   C   A *
                                 *****************

           --- An Ab Initio, DFT and Semiempirical electronic structure package ---

                  #######################################################
                  #                        -***-                        #
                  #          Department of theory and spectroscopy      #
                  #               Directorship: Frank Neese             #
                  #        Max Planck Institute fuer Kohlenforschung    #
                  #                Kaiser Wilhelm Platz 1               #
                  #                 D-45470 Muelheim/Ruhr               #
                  #                      Germany                        #
                  #                                                     #
                  #                  All rights reserved                #
                  #                        -***-                        #
                  #######################################################


                         Program Version 4.2.0 -  RELEASE  -


 With contributions from (in alphabetic order):
   Daniel Aravena         : Magnetic Suceptibility
   Michael Atanasov       : Ab Initio Ligand Field Theory (pilot matlab implementation)
   Alexander A. Auer      : GIAO ZORA, VPT2
   Ute Becker             : Parallelization
   Giovanni Bistoni       : ED, misc. LED, open-shell LED, HFLED
   Martin Brehm           : Molecular dynamics
   Dmytro Bykov           : SCF Hessian
   Vijay G. Chilkuri      : MRCI spin determinant printing, contributions to CSF-ICE
   Dipayan Datta          : RHF DLPNO-CCSD density
   Achintya Kumar Dutta   : EOM-CC, STEOM-CC
   Dmitry Ganyushin       : Spin-Orbit,Spin-Spin,Magnetic field MRCI
   Miquel Garcia          : C-PCM Hessian, Gaussian charge scheme
   Yang Guo               : DLPNO-NEVPT2, CIM, IAO-localization
   Andreas Hansen         : Spin unrestricted coupled pair/coupled cluster methods
   Benjamin Helmich-Paris : CASSCF linear response (MC-RPA)
   Lee Huntington         : MR-EOM, pCC
   Robert Izsak           : Overlap fitted RIJCOSX, COSX-SCS-MP3, EOM
   Christian Kollmar      : KDIIS, OOCD, Brueckner-CCSD(T), CCSD density
   Simone Kossmann        : Meta GGA functionals, TD-DFT gradient, OOMP2, MP2 Hessian
   Martin Krupicka        : AUTO-CI
   Lucas Lang             : DCDCAS
   Dagmar Lenk            : GEPOL surface, SMD
   Dimitrios Liakos       : Extrapolation schemes; Compound Job, initial MDCI parallelization
   Dimitrios Manganas     : Further ROCIS development; embedding schemes
   Dimitrios Pantazis     : SARC Basis sets
   Taras Petrenko         : DFT Hessian,TD-DFT gradient, ASA, ECA, R-Raman, ABS, FL, XAS/XES, NRVS
   Peter Pinski           : DLPNO-MP2, DLPNO-MP2 Gradient
   Christoph Reimann      : Effective Core Potentials
   Marius Retegan         : Local ZFS, SOC
   Christoph Riplinger    : Optimizer, TS searches, QM/MM, DLPNO-CCSD(T), (RO)-DLPNO pert. Triples
   Tobias Risthaus        : Range-separated hybrids, TD-DFT gradient, RPA, STAB
   Michael Roemelt        : Original ROCIS implementation
   Masaaki Saitow         : Open-shell DLPNO-CCSD energy and density
   Barbara Sandhoefer     : DKH picture change effects
   Avijit Sen             : IP-ROCIS
   Kantharuban Sivalingam : CASSCF convergence, NEVPT2, FIC-MRCI
   Bernardo de Souza      : ESD, SOC TD-DFT
   Georgi Stoychev        : AutoAux, RI-MP2 NMR
   Willem Van den Heuvel  : Paramagnetic NMR
   Boris Wezisla          : Elementary symmetry handling
   Frank Wennmohs         : Technical directorship


 We gratefully acknowledge several colleagues who have allowed us to
 interface, adapt or use parts of their codes:
   Stefan Grimme, W. Hujo, H. Kruse,             : VdW corrections, initial TS optimization,
                  C. Bannwarth                     DFT functionals, gCP, sTDA/sTD-DF
   Ed Valeev, F. Pavosevic, A. Kumar             : LibInt (2-el integral package), F12 methods
   Garnet Chan, S. Sharma, J. Yang, R. Olivares  : DMRG
   Ulf Ekstrom                                   : XCFun DFT Library
   Mihaly Kallay                                 : mrcc  (arbitrary order and MRCC methods)
   Andreas Klamt, Michael Diedenhofen            : otool_cosmo (COSMO solvation model)
   Jiri Pittner, Ondrej Demel                    : Mk-CCSD
   Frank Weinhold                                : gennbo (NPA and NBO analysis)
   Christopher J. Cramer and Donald G. Truhlar   : smd solvation model
   Lars Goerigk                                  : TD-DFT with DH, B97 family of functionals
   V. Asgeirsson, H. Jonsson                     : NEB implementation
   FAccTs GmbH                                   : IRC, NEB, NEB-TS, Multilevel, MM, QM/MM, CI optimization
   S Lehtola, MJT Oliveira, MAL Marques          : LibXC Library


 Your calculation uses the libint2 library for the computation of 2-el integrals
 For citations please refer to: http://libint.valeyev.net

 Your ORCA version has been built with support for libXC version: 4.2.3
 For citations please refer to: https://tddft.org/programs/libxc/

 This ORCA versions uses:
   CBLAS   interface :  Fast vector & matrix operations
   LAPACKE interface :  Fast linear algebra routines
   SCALAPACK package :  Parallel linear algebra routines


----- Orbital basis set information -----
Your calculation utilizes the basis: def2-TZVP
   F. Weigend and R. Ahlrichs, Phys. Chem. Chem. Phys. 7, 3297 (2005).

----- AuxC basis set information -----
Your calculation utilizes the auxiliary basis: def2-TZVP/C
  H-La, Hf-Rn : A. Hellweg, C. Hattig, S. Hofener and W. Klopper, Theor. Chem. Acc. 117, 587 (2007).
        Ce-Lu : J. Chmela and M. E. Harding, Mol. Phys. (2018).

================================================================================
                                        WARNINGS
                       Please study these warnings very carefully!
================================================================================


WARNING: No MP2 level density has been requested!
         To caclulate MP2 level properties use
         %mp2 Density relaxed end
         or
         %mp2 Density unrelaxed end

INFO   : the flag for use of LIBINT has been found!

================================================================================
                                       INPUT FILE
================================================================================
NAME = input.inp
|  1> ! RI-MP2 def2-TZVP def2-TZVP/C TightSCF FrozenCore
|  2> 
|  3> %pal nprocs 24 end
|  4> %maxcore 8000
|  5> %scf ConvForced true end
|  6> 
|  7> *xyz  0  1
|  8> O     0.00000     0.00000     0.00000
|  9> H    -0.60718     0.01492     0.74568
| 10> C     0.44737     1.33852    -0.23527
| 11> H     0.27262     1.57616    -1.28030
| 12> H     1.50908     1.41937     0.01395
| 13> H    -0.20264     2.00045     0.36996
| 14> O    -0.27498     0.11294     2.59164
| 15> H     0.13293    -0.74566     2.50120
| 16> C    -0.41706     0.23215     4.02639
| 17> H    -0.73723     1.23448     4.35753
| 18> H     0.55690     0.03175     4.58236
| 19> H    -1.14283    -0.47769     4.28447
| 20> O     2.56904    -0.90400    -2.49943
| 21> H     1.80807    -0.49219    -2.10423
| 22> C     2.13439    -2.16150    -2.91751
| 23> H     2.96331    -2.81639    -3.06326
| 24> H     1.63258    -2.07538    -3.88719
| 25> H     1.44168    -2.59915    -2.19568
| 26> O    -3.93805     0.14421     0.34567
| 27> H    -4.67636     0.03321     0.93599
| 28> C    -3.60449    -1.09350    -0.27931
| 29> H    -3.22417    -0.91568    -1.30232
| 30> H    -4.48042    -1.66330    -0.33782
| 31> H    -2.90621    -1.59734     0.24357
| 32> O    -2.30899     2.53258    -2.53163
| 33> H    -2.01867     1.88285    -1.86134
| 34> C    -3.76386     2.46926    -2.67900
| 35> H    -4.12117     3.19027    -3.43230
| 36> H    -4.27898     2.69962    -1.69242
| 37> H    -3.99319     1.43911    -2.98058
| 38> O    -1.13229    -3.35163    -2.40871
| 39> H    -0.35199    -3.63187    -1.91196
| 40> C    -1.99586    -4.41073    -2.68267
| 41> H    -2.91370    -4.13973    -3.32867
| 42> H    -2.37952    -4.72141    -1.69168
| 43> H    -1.44739    -5.21591    -3.11516
| 44> O    -1.92735     3.43210     2.27054
| 45> H    -2.09394     3.85264     3.15912
| 46> C    -2.95090     2.56776     1.92526
| 47> H    -2.85380     2.52401     0.86363
| 48> H    -3.91870     2.95910     2.13936
| 49> H    -2.82591     1.61709     2.39350
| 50> O     4.68906    -1.63161     0.69636
| 51> H     5.02685    -1.26547    -0.14009
| 52> C     3.31244    -1.26664     0.75227
| 53> H     2.71933    -2.13990     0.82408
| 54> H     2.99856    -0.70059    -0.11334
| 55> H     3.15726    -0.69662     1.63824
| 56> O     2.31930    -2.18366     3.93122
| 57> H     2.41680    -1.51179     4.65169
| 58> C     3.43389    -3.08772     4.08390
| 59> H     3.72140    -3.42541     3.07532
| 60> H     3.24895    -3.98313     4.73142
| 61> H     4.32789    -2.61328     4.44652
| 62> O     0.85476     4.00063     3.00162
| 63> H    -0.01822     3.62281     2.82994
| 64> C     1.91787     3.06037     2.68895
| 65> H     2.66048     2.98486     3.46380
| 66> H     2.38558     3.21944     1.72046
| 67> H     1.49723     2.15175     2.70591
| 68> O    -0.21723     2.06270    -4.68946
| 69> H     0.01494     2.63535    -3.95702
| 70> C     1.14775     1.76053    -5.27880
| 71> H     1.03597     1.54475    -6.35299
| 72> H     1.50792     0.86017    -4.79752
| 73> H     1.83962     2.61232    -5.05191
| 74> O     1.28446     5.07157    -0.44510
| 75> H     1.77359     5.89627    -0.56640
| 76> C     0.40365     4.91696    -1.57381
| 77> H    -0.27704     4.03049    -1.41142
| 78> H     0.98966     4.70664    -2.44576
| 79> H    -0.17269     5.81398    -1.67873
| 80> O     1.64083    -5.10944    -0.30076
| 81> H     2.51599    -5.50549    -0.43928
| 82> C     0.70976    -6.20046    -0.52003
| 83> H     0.03387    -6.13767    -1.38112
| 84> H     0.12660    -6.30886     0.41902
| 85> H     1.23411    -7.13762    -0.66650
| 86> O    -0.06994    -2.78290     4.99196
| 87> H     0.68158    -2.77825     4.40800
| 88> C    -0.34081    -4.09264     5.28331
| 89> H    -1.12669    -4.16070     6.09837
| 90> H     0.55789    -4.64973     5.54497
| 91> H    -0.87331    -4.54272     4.33226
| 92> O    -1.76216    -0.18036    -5.49255
| 93> H    -1.09620     0.46274    -5.30625
| 94> C    -1.50548    -1.12704    -4.48198
| 95> H    -1.24385    -2.08779    -4.96932
| 96> H    -2.45009    -1.15718    -3.87401
| 97> H    -0.66831    -0.86556    -3.80790
| 98> O     5.58719    -1.16338    -2.03966
| 99> H     5.58519    -1.92103    -2.58931
|100> C     6.96184    -0.62599    -2.09589
|101> H     6.92089     0.46606    -1.82470
|102> H     7.34352    -0.62573    -3.13499
|103> H     7.65452    -1.23492    -1.55566
|104> O     5.38456     2.62309     0.99964
|105> H     6.22895     2.50273     0.61156
|106> C     4.53689     2.67609    -0.06510
|107> H     3.53875     2.43862     0.28703
|108> H     4.87366     1.93771    -0.79920
|109> H     4.56226     3.65034    -0.46915
|110> O    -5.69993    -0.51947    -2.90854
|111> H    -6.16856    -0.82798    -3.67227
|112> C    -6.65382     0.18213    -2.15226
|113> H    -6.43444     0.01596    -1.11656
|114> H    -7.61917    -0.28385    -2.33404
|115> H    -6.67538     1.23431    -2.44109
|116> O    -3.52147     1.05646     5.32414
|117> H    -4.36356     1.30123     5.67745
|118> C    -2.95469     0.33162     6.34466
|119> H    -2.39408    -0.44934     5.92689
|120> H    -3.74357    -0.09401     6.97537
|121> H    -2.23926     1.03396     6.84445
|122> O    -3.54411    -3.75011     4.20977
|123> H    -3.28850    -4.52554     4.58791
|124> C    -2.81761    -3.71540     2.99362
|125> H    -3.37899    -3.13960     2.21055
|126> H    -2.79183    -4.70027     2.74911
|127> H    -1.78731    -3.33676     3.20966
|128> *
|129> 
|130>                          ****END OF INPUT****
================================================================================

                       ****************************
                       * Single Point Calculation *
                       ****************************

---------------------------------
CARTESIAN COORDINATES (ANGSTROEM)
---------------------------------
  O      0.000000    0.000000    0.000000
  H     -0.607180    0.014920    0.745680
  C      0.447370    1.338520   -0.235270
  H      0.272620    1.576160   -1.280300
  H      1.509080    1.419370    0.013950
  H     -0.202640    2.000450    0.369960
  O     -0.274980    0.112940    2.591640
  H      0.132930   -0.745660    2.501200
  C     -0.417060    0.232150    4.026390
  H     -0.737230    1.234480    4.357530
  H      0.556900    0.031750    4.582360
  H     -1.142830   -0.477690    4.284470
  O      2.569040   -0.904000   -2.499430
  H      1.808070   -0.492190   -2.104230
  C      2.134390   -2.161500   -2.917510
  H      2.963310   -2.816390   -3.063260
  H      1.632580   -2.075380   -3.887190
  H      1.441680   -2.599150   -2.195680
  O     -3.938050    0.144210    0.345670
  H     -4.676360    0.033210    0.935990
  C     -3.604490   -1.093500   -0.279310
  H     -3.224170   -0.915680   -1.302320
  H     -4.480420   -1.663300   -0.337820
  H     -2.906210   -1.597340    0.243570
  O     -2.308990    2.532580   -2.531630
  H     -2.018670    1.882850   -1.861340
  C     -3.763860    2.469260   -2.679000
  H     -4.121170    3.190270   -3.432300
  H     -4.278980    2.699620   -1.692420
  H     -3.993190    1.439110   -2.980580
  O     -1.132290   -3.351630   -2.408710
  H     -0.351990   -3.631870   -1.911960
  C     -1.995860   -4.410730   -2.682670
  H     -2.913700   -4.139730   -3.328670
  H     -2.379520   -4.721410   -1.691680
  H     -1.447390   -5.215910   -3.115160
  O     -1.927350    3.432100    2.270540
  H     -2.093940    3.852640    3.159120
  C     -2.950900    2.567760    1.925260
  H     -2.853800    2.524010    0.863630
  H     -3.918700    2.959100    2.139360
  H     -2.825910    1.617090    2.393500
  O      4.689060   -1.631610    0.696360
  H      5.026850   -1.265470   -0.140090
  C      3.312440   -1.266640    0.752270
  H      2.719330   -2.139900    0.824080
  H      2.998560   -0.700590   -0.113340
  H      3.157260   -0.696620    1.638240
  O      2.319300   -2.183660    3.931220
  H      2.416800   -1.511790    4.651690
  C      3.433890   -3.087720    4.083900
  H      3.721400   -3.425410    3.075320
  H      3.248950   -3.983130    4.731420
  H      4.327890   -2.613280    4.446520
  O      0.854760    4.000630    3.001620
  H     -0.018220    3.622810    2.829940
  C      1.917870    3.060370    2.688950
  H      2.660480    2.984860    3.463800
  H      2.385580    3.219440    1.720460
  H      1.497230    2.151750    2.705910
  O     -0.217230    2.062700   -4.689460
  H      0.014940    2.635350   -3.957020
  C      1.147750    1.760530   -5.278800
  H      1.035970    1.544750   -6.352990
  H      1.507920    0.860170   -4.797520
  H      1.839620    2.612320   -5.051910
  O      1.284460    5.071570   -0.445100
  H      1.773590    5.896270   -0.566400
  C      0.403650    4.916960   -1.573810
  H     -0.277040    4.030490   -1.411420
  H      0.989660    4.706640   -2.445760
  H     -0.172690    5.813980   -1.678730
  O      1.640830   -5.109440   -0.300760
  H      2.515990   -5.505490   -0.439280
  C      0.709760   -6.200460   -0.520030
  H      0.033870   -6.137670   -1.381120
  H      0.126600   -6.308860    0.419020
  H      1.234110   -7.137620   -0.666500
  O     -0.069940   -2.782900    4.991960
  H      0.681580   -2.778250    4.408000
  C     -0.340810   -4.092640    5.283310
  H     -1.126690   -4.160700    6.098370
  H      0.557890   -4.649730    5.544970
  H     -0.873310   -4.542720    4.332260
  O     -1.762160   -0.180360   -5.492550
  H     -1.096200    0.462740   -5.306250
  C     -1.505480   -1.127040   -4.481980
  H     -1.243850   -2.087790   -4.969320
  H     -2.450090   -1.157180   -3.874010
  H     -0.668310   -0.865560   -3.807900
  O      5.587190   -1.163380   -2.039660
  H      5.585190   -1.921030   -2.589310
  C      6.961840   -0.625990   -2.095890
  H      6.920890    0.466060   -1.824700
  H      7.343520   -0.625730   -3.134990
  H      7.654520   -1.234920   -1.555660
  O      5.384560    2.623090    0.999640
  H      6.228950    2.502730    0.611560
  C      4.536890    2.676090   -0.065100
  H      3.538750    2.438620    0.287030
  H      4.873660    1.937710   -0.799200
  H      4.562260    3.650340   -0.469150
  O     -5.699930   -0.519470   -2.908540
  H     -6.168560   -0.827980   -3.672270
  C     -6.653820    0.182130   -2.152260
  H     -6.434440    0.015960   -1.116560
  H     -7.619170   -0.283850   -2.334040
  H     -6.675380    1.234310   -2.441090
  O     -3.521470    1.056460    5.324140
  H     -4.363560    1.301230    5.677450
  C     -2.954690    0.331620    6.344660
  H     -2.394080   -0.449340    5.926890
  H     -3.743570   -0.094010    6.975370
  H     -2.239260    1.033960    6.844450
  O     -3.544110   -3.750110    4.209770
  H     -3.288500   -4.525540    4.587910
  C     -2.817610   -3.715400    2.993620
  H     -3.378990   -3.139600    2.210550
  H     -2.791830   -4.700270    2.749110
  H     -1.787310   -3.336760    3.209660

----------------------------
CARTESIAN COORDINATES (A.U.)
----------------------------
  NO LB      ZA    FRAG     MASS         X           Y           Z
   0 O     8.0000    0    15.999    0.000000    0.000000    0.000000
   1 H     1.0000    0     1.008   -1.147404    0.028195    1.409131
   2 C     6.0000    0    12.011    0.845407    2.529436   -0.444596
   3 H     1.0000    0     1.008    0.515177    2.978511   -2.419416
   4 H     1.0000    0     1.008    2.851748    2.682221    0.026362
   5 H     1.0000    0     1.008   -0.382934    3.780303    0.699123
   6 O     8.0000    0    15.999   -0.519637    0.213426    4.897490
   7 H     1.0000    0     1.008    0.251201   -1.409093    4.726583
   8 C     6.0000    0    12.011   -0.788129    0.438700    7.608774
   9 H     1.0000    0     1.008   -1.393163    2.332829    8.234538
  10 H     1.0000    0     1.008    1.052388    0.059999    8.659405
  11 H     1.0000    0     1.008   -2.159636   -0.902703    8.096475
  12 O     8.0000    0    15.999    4.854782   -1.708312   -4.723238
  13 H     1.0000    0     1.008    3.416757   -0.930104   -3.976418
  14 C     6.0000    0    12.011    4.033413   -4.084643   -5.513295
  15 H     1.0000    0     1.008    5.599844   -5.322206   -5.788722
  16 H     1.0000    0     1.008    3.085129   -3.921900   -7.345725
  17 H     1.0000    0     1.008    2.724380   -4.911682   -4.149234
  18 O     8.0000    0    15.999   -7.441836    0.272517    0.653222
  19 H     1.0000    0     1.008   -8.837040    0.062758    1.768765
  20 C     6.0000    0    12.011   -6.811499   -2.066416   -0.527819
  21 H     1.0000    0     1.008   -6.092798   -1.730384   -2.461028
  22 H     1.0000    0     1.008   -8.466767   -3.143181   -0.638387
  23 H     1.0000    0     1.008   -5.491941   -3.018535    0.460281
  24 O     8.0000    0    15.999   -4.363359    4.785883   -4.784087
  25 H     1.0000    0     1.008   -3.814733    3.558071   -3.517423
  26 C     6.0000    0    12.011   -7.112665    4.666225   -5.062576
  27 H     1.0000    0     1.008   -7.787883    6.028737   -6.486107
  28 H     1.0000    0     1.008   -8.086100    5.101542   -3.198210
  29 H     1.0000    0     1.008   -7.546036    2.719524   -5.632480
  30 O     8.0000    0    15.999   -2.139718   -6.333663   -4.551802
  31 H     1.0000    0     1.008   -0.665165   -6.863240   -3.613081
  32 C     6.0000    0    12.011   -3.771629   -8.335072   -5.069512
  33 H     1.0000    0     1.008   -5.506095   -7.822956   -6.290275
  34 H     1.0000    0     1.008   -4.496641   -8.922172   -3.196812
  35 H     1.0000    0     1.008   -2.735171   -9.856641   -5.886799
  36 O     8.0000    0    15.999   -3.642164    6.485729    4.290699
  37 H     1.0000    0     1.008   -3.956973    7.280434    5.969872
  38 C     6.0000    0    12.011   -5.576393    4.852363    3.638214
  39 H     1.0000    0     1.008   -5.392900    4.769688    1.632024
  40 H     1.0000    0     1.008   -7.405270    5.591889    4.042805
  41 H     1.0000    0     1.008   -5.340196    3.055857    4.523060
  42 O     8.0000    0    15.999    8.861039   -3.083296    1.315930
  43 H     1.0000    0     1.008    9.499370   -2.391392   -0.264732
  44 C     6.0000    0    12.011    6.259604   -2.393603    1.421584
  45 H     1.0000    0     1.008    5.138789   -4.043825    1.557286
  46 H     1.0000    0     1.008    5.666457   -1.323923   -0.214182
  47 H     1.0000    0     1.008    5.966357   -1.316421    3.095825
  48 O     8.0000    0    15.999    4.382842   -4.126519    7.428929
  49 H     1.0000    0     1.008    4.567090   -2.856869    8.790420
  50 C     6.0000    0    12.011    6.489112   -5.834945    7.717453
  51 H     1.0000    0     1.008    7.032427   -6.473087    5.811513
  52 H     1.0000    0     1.008    6.139626   -7.527025    8.941088
  53 H     1.0000    0     1.008    8.178527   -4.938384    8.402705
  54 O     8.0000    0    15.999    1.615262    7.560095    5.672240
  55 H     1.0000    0     1.008   -0.034431    6.846119    5.347812
  56 C     6.0000    0    12.011    3.624249    5.783261    5.081379
  57 H     1.0000    0     1.008    5.027579    5.640568    6.545633
  58 H     1.0000    0     1.008    4.508093    6.083860    3.251198
  59 H     1.0000    0     1.008    2.829355    4.066218    5.113429
  60 O     8.0000    0    15.999   -0.410505    3.897938   -8.861795
  61 H     1.0000    0     1.008    0.028233    4.980090   -7.477684
  62 C     6.0000    0    12.011    2.168933    3.326920   -9.975486
  63 H     1.0000    0     1.008    1.957700    2.919154  -12.005411
  64 H     1.0000    0     1.008    2.849556    1.625486   -9.065999
  65 H     1.0000    0     1.008    3.476378    4.936569   -9.546726
  66 O     8.0000    0    15.999    2.427278    9.583878   -0.841117
  67 H     1.0000    0     1.008    3.351599   11.142336   -1.070341
  68 C     6.0000    0    12.011    0.762788    9.291708   -2.974070
  69 H     1.0000    0     1.008   -0.523530    7.616522   -2.667197
  70 H     1.0000    0     1.008    1.870186    8.894261   -4.621817
  71 H     1.0000    0     1.008   -0.326337   10.986830   -3.172340
  72 O     8.0000    0    15.999    3.100719   -9.655442   -0.568354
  73 H     1.0000    0     1.008    4.754532  -10.403868   -0.830119
  74 C     6.0000    0    12.011    1.341252  -11.717171   -0.982714
  75 H     1.0000    0     1.008    0.064005  -11.598515   -2.609939
  76 H     1.0000    0     1.008    0.239239  -11.922018    0.791833
  77 H     1.0000    0     1.008    2.332130  -13.488147   -1.259502
  78 O     8.0000    0    15.999   -0.132167   -5.258919    9.433437
  79 H     1.0000    0     1.008    1.288000   -5.250132    8.329913
  80 C     6.0000    0    12.011   -0.644038   -7.733969    9.984009
  81 H     1.0000    0     1.008   -2.129136   -7.862584   11.524249
  82 H     1.0000    0     1.008    1.054259   -8.786716   10.478475
  83 H     1.0000    0     1.008   -1.650317   -8.584497    8.186785
  84 O     8.0000    0    15.999   -3.330000   -0.340831  -10.379415
  85 H     1.0000    0     1.008   -2.071518    0.874452  -10.027359
  86 C     6.0000    0    12.011   -2.844945   -2.129797   -8.469715
  87 H     1.0000    0     1.008   -2.350536   -3.945351   -9.390654
  88 H     1.0000    0     1.008   -4.629999   -2.186753   -7.320818
  89 H     1.0000    0     1.008   -1.262923   -1.635671   -7.195888
  90 O     8.0000    0    15.999   10.558259   -2.198470   -3.854399
  91 H     1.0000    0     1.008   10.554480   -3.630221   -4.893087
  92 C     6.0000    0    12.011   13.155971   -1.182950   -3.960658
  93 H     1.0000    0     1.008   13.078587    0.880726   -3.448183
  94 H     1.0000    0     1.008   13.877242   -1.182458   -5.924273
  95 H     1.0000    0     1.008   14.464946   -2.333661   -2.939771
  96 O     8.0000    0    15.999   10.175344    4.956922    1.889046
  97 H     1.0000    0     1.008   11.771010    4.729474    1.155681
  98 C     6.0000    0    12.011    8.573480    5.057077   -0.123021
  99 H     1.0000    0     1.008    6.687268    4.608324    0.542408
 100 H     1.0000    0     1.008    9.209883    3.661741   -1.510269
 101 H     1.0000    0     1.008    8.621422    6.898143   -0.886565
 102 O     8.0000    0    15.999  -10.771307   -0.981656   -5.496344
 103 H     1.0000    0     1.008  -11.656889   -1.564655   -6.939585
 104 C     6.0000    0    12.011  -12.573898    0.344176   -4.067182
 105 H     1.0000    0     1.008  -12.159329    0.030160   -2.109993
 106 H     1.0000    0     1.008  -14.398145   -0.536399   -4.410696
 107 H     1.0000    0     1.008  -12.614640    2.332508   -4.612992
 108 O     8.0000    0    15.999   -6.654614    1.996420   10.061166
 109 H     1.0000    0     1.008   -8.245933    2.458968   10.728826
 110 C     6.0000    0    12.011   -5.583555    0.626671   11.989670
 111 H     1.0000    0     1.008   -4.524156   -0.849130   11.200199
 112 H     1.0000    0     1.008   -7.074322   -0.177653   13.181539
 113 H     1.0000    0     1.008   -4.231588    1.953901   12.934136
 114 O     8.0000    0    15.999   -6.697397   -7.086681    7.955312
 115 H     1.0000    0     1.008   -6.214364   -8.552031    8.669893
 116 C     6.0000    0    12.011   -5.324511   -7.021088    5.657122
 117 H     1.0000    0     1.008   -6.385366   -5.932984    4.177334
 118 H     1.0000    0     1.008   -5.275794   -8.882223    5.195065
 119 H     1.0000    0     1.008   -3.377526   -6.305563    6.065378

--------------------------------
INTERNAL COORDINATES (ANGSTROEM)
--------------------------------
 O      0   0   0     0.000000000000     0.00000000     0.00000000
 H      1   0   0     0.961732198276     0.00000000     0.00000000
 C      1   2   0     1.430778697144   108.08250924     0.00000000
 H      3   1   2     1.085862805791   108.22016820   232.94115761
 H      3   1   2     1.093560905940   109.58835407   111.69316398
 H      3   1   2     1.107685730656   106.60169760   348.30752340
 O      2   1   3     1.878172804084   130.63174662   281.56529738
 H      7   2   1     0.954863300007    86.30420157   294.58770371
 C      7   2   1     1.446687704033   164.08472174   171.84775164
 H      9   7   2     1.103099250929   113.64653775   292.12157824
 H      9   7   2     1.139236973812   112.67695944   172.62893900
 H      9   7   2     1.047482794560   104.86571511    52.18937721
 O      5   3   1     3.583105131433    94.55443962    63.06647224
 H     13   5   3     0.951233860310    36.02165743   357.71748033
 C     13   5   3     1.394638934958   134.64775556   314.08051754
 H     15  13   5     1.066410962528   110.63662757   224.32024796
 H     15  13   5     1.095221088594   109.71305043   107.14883752
 H     15  13   5     1.091981325619   111.15656277   346.47666926
 O      2   1   3     3.357293383233   122.31598112    96.33657718
 H     19   2   1     0.951787979804   133.72634791   168.90289985
 C     19   2   1     1.426109504246    77.68641779    62.05610567
 H     21  19   2     1.105808624899   110.26172221   279.47954828
 H     21  19   2     1.046589138583   107.53304365   160.89447492
 H     21  19   2     1.007399224935   111.63715589    40.53912469
 O      4   3   1     3.024115767857   127.21599312    83.00497704
 H     25   4   3     0.977611098239    41.63313010   319.29024322
 C     25   4   3     1.463685094616   151.22451606   317.52306519
 H     27  25   4     1.102264372190   111.26726815   181.42300931
 H     27  25   4     1.136553756054   110.75260329    60.92523667
 H     27  25   4     1.097611847513   106.01821192   302.21222292
 O     18  15  13     2.690154176288   131.81469649   118.67429186
 H     31  18  15     0.966521137948    42.94082635   148.27929636
 C     31  18  15     1.393735999571   145.18202835    92.73643869
 H     33  31  18     1.154637287463   115.09741202   220.86746952
 H     33  31  18     1.107148697375   104.59637076   103.85167972
 H     33  31  18     1.065918277074   109.56967083   346.85433785
 O      6   3   1     2.938783871434   171.44374174    35.10810347
 H     37   6   3     0.997086022417   151.62627216    62.12381229
 C     37   6   3     1.383458173022    88.19109665   287.34933849
 H     39  37   6     1.066958635281   101.92425015   316.58418167
 H     39  37   6     1.065655969626   113.09989682   201.70132870
 H     39  37   6     1.067072934058   111.12700643    77.13447208
 O     13   5   3     3.903456780419    72.97714369   220.63434780
 H     43  13   5     0.973554922025    54.19199391   248.02593418
 C     43  13   5     1.425275992010    57.30352005    37.61311502
 H     45  43  13     1.058073331958   109.43520262    96.12715022
 H     45  43  13     1.080839455701   112.53087154   334.92101866
 H     45  43  13     1.064869228450   108.08709052   213.12559978
 O     48  45  43     2.858534975053   115.57181162   266.83224054
 H     49  48  45     0.989945739826   101.64579572   169.03135983
 C     49  48  45     1.443241675569   100.62235288    60.28965676
 H     51  49  48     1.101784984741   107.25809614   318.78240855
 H     51  49  48     1.120376732220   115.74010971   196.76842004
 H     51  49  48     1.075091892817   113.66842250    72.09355401
 O     37   6   3     2.932207424348    72.47419014    87.21252762
 H     55  37   6     0.966600256156    12.31641964   289.96456013
 C     55  37   6     1.453290841023   120.99652658   333.03716481
 H     57  55  37     1.075901433543   113.28917879   218.37798873
 H     57  55  37     1.087211473955   114.31077941    90.17789497
 H     57  55  37     1.001406987992   106.02886421   329.85488075
 O     25   4   3     3.041788523369    69.97874789   185.06185967
 H     61  25   4     0.958279335580    62.10104162   306.53254609
 C     61  25   4     1.517168001541   157.67173178   352.13997502
 H     63  61  25     1.101335522400   109.06139141   167.29190839
 H     63  61  25     1.082589948642   106.99405700    51.03531811
 H     63  61  25     1.120584389102   108.99232784   292.50715152
 O     59  57  55     3.054914222184   124.41025409   348.23573484
 H     67  59  57     0.966484317979   115.08035301   106.70765159
 C     67  59  57     1.440040545367   135.31591918   268.26329431
 H     69  67  59     1.129397383165   109.89020845    24.34470716
 H     69  67  59     1.071419164006   108.93002261   267.40706266
 H     69  67  59     1.071364028890   108.41551042   144.97076852
 O     32  31  18     2.958126112474   165.61350047   197.86010895
 H     73  32  31     0.970540271447   137.18591418   111.68460701
 C     73  32  31     1.450963582658    82.00896661     8.96022801
 H     75  73  32     1.096469727945   118.11046947    22.64855642
 H     75  73  32     1.110693948890   106.41145228   258.16573008
 H     75  73  32     1.083819749313   111.10958263   142.63885079
 O     12   9   7     2.639247657250   112.10337571    93.67639739
 H     79  12   9     0.951742199600    98.75731600   325.96928383
 C     79  12   9     1.368822211611   144.32601541   189.88365113
 H     81  79  12     1.134267314878   110.33242853   305.67179398
 H     81  79  12     1.089255210545   112.16213023   180.56611341
 H     81  79  12     1.179247369681   106.43284851    58.02527885
 O     61  25   4     2.839556376725    87.04862864   109.55289746
 H     85  61  25     0.944345287276    12.19724723   206.10052919
 C     85  61  25     1.408310821410   103.23176965   286.00736767
 H     87  85  61     1.108598707829   108.06690561   228.80519611
 H     87  85  61     1.123754418278   104.65772825   106.50751497
 H     87  85  61     1.106168723884   114.60232531   348.12244754
 O     44  43  13     1.983121143198   160.11385146   289.07852924
 H     91  44  43     0.936030258592   121.34575131   356.06698495
 C     91  44  43     1.477028248714   108.55200852   233.17953632
 H     93  91  44     1.125963641109   108.05056960   288.74322369
 H     93  91  44     1.106981707166   110.89859966   175.61256263
 H     93  91  44     1.068854424232   112.12454978    59.16294103
 O     59  57  55     3.141511711788   125.96528156   148.47345494
 H     97  59  57     0.937063011809   168.41482606   178.03057794
 C     97  59  57     1.361992913528    65.02951391   158.41542402
 H     99  97  59     1.084744669219   108.08297289   334.88948537
 H     99  97  59     1.094313422791   107.85649241   215.18171248
 H     99  97  59     1.055018057618   108.68486960    94.72753552
 O     30  27  25     2.598881837560   146.81426150   149.14446715
 H    103  30  27     0.947668723711   123.21306764   112.04392418
 C    103  30  27     1.405029583496    94.84463833     0.44407652
 H    105 103  30     1.071641051519   107.68606786   270.99283742
 H    105 103  30     1.087235922558   107.38487810   157.14067513
 H    105 103  30     1.091315882272   110.63390576    36.38425607
 O     10   9   7     2.952629064088   108.49264860   109.15768838
 H    109  10   9     0.945439515305   161.19476557   180.56608769
 C    109  10   9     1.374079206014    83.45325364    68.85130897
 H    111 109  10     1.048195528802   108.51912425   305.99713466
 H    111 109  10     1.096032689020   109.59363411   187.11446411
 H    111 109  10     1.120228371628   105.31072098    61.04726457
 O     84  81  79     2.788620994721   111.06483986   282.48288871
 H    115  84  81     0.899787761975    57.62335835   266.05840067
 C    115  84  81     1.417048995836    63.48934532   137.10169341
 H    117 115  84     1.122449005211   110.78663862   193.38856866
 H    117 115  84     1.015095397192   101.30196655    76.68903161
 H    117 115  84     1.118731255128   108.34367620   320.33545964

---------------------------
INTERNAL COORDINATES (A.U.)
---------------------------
 O      0   0   0     0.000000000000     0.00000000     0.00000000
 H      1   0   0     1.817410468915     0.00000000     0.00000000
 C      1   2   0     2.703779895850   108.08250924     0.00000000
 H      3   1   2     2.051983321956   108.22016820   232.94115761
 H      3   1   2     2.066530622989   109.58835407   111.69316398
 H      3   1   2     2.093222673393   106.60169760   348.30752340
 O      2   1   3     3.549232231897   130.63174662   281.56529738
 H      7   2   1     1.804430132345    86.30420157   294.58770371
 C      7   2   1     2.733843561934   164.08472174   171.84775164
 H      9   7   2     2.084555482789   113.64653775   292.12157824
 H      9   7   2     2.152845882142   112.67695944   172.62893900
 H      9   7   2     1.979455611714   104.86571511    52.18937721
 O      5   3   1     6.771087407456    94.55443962    63.06647224
 H     13   5   3     1.797571485298    36.02165743   357.71748033
 C     13   5   3     2.635485642774   134.64775556   314.08051754
 H     15  13   5     2.015224665389   110.63662757   224.32024796
 H     15  13   5     2.069667913537   109.71305043   107.14883752
 H     15  13   5     2.063545648776   111.15656277   346.47666926
 O      2   1   3     6.344365045536   122.31598112    96.33657718
 H     19   2   1     1.798618619388   133.72634791   168.90289985
 C     19   2   1     2.694956400007    77.68641779    62.05610567
 H     21  19   2     2.089675457586   110.26172221   279.47954828
 H     21  19   2     1.977766846659   107.53304365   160.89447492
 H     21  19   2     1.903708642652   111.63715589    40.53912469
 O      4   3   1     5.714750598522   127.21599312    83.00497704
 H     25   4   3     1.847417241154    41.63313010   319.29024322
 C     25   4   3     2.765963975126   151.22451606   317.52306519
 H     27  25   4     2.082977790618   111.26726815   181.42300931
 H     27  25   4     2.147775335421   110.75260329    60.92523667
 H     27  25   4     2.074185793146   106.01821192   302.21222292
 O     18  15  13     5.083654651209   131.81469649   118.67429186
 H     31  18  15     1.826460253367    42.94082635   148.27929636
 C     31  18  15     2.633779342176   145.18202835    92.73643869
 H     33  31  18     2.181948257319   115.09741202   220.86746952
 H     33  31  18     2.092207827567   104.59637076   103.85167972
 H     33  31  18     2.014293624811   109.56967083   346.85433785
 O      6   3   1     5.553496683795   171.44374174    35.10810347
 H     37   6   3     1.884219514330   151.62627216    62.12381229
 C     37   6   3     2.614357064746    88.19109665   287.34933849
 H     39  37   6     2.016259616903   101.92425015   316.58418167
 H     39  37   6     2.013797935572   113.09989682   201.70132870
 H     39  37   6     2.016475610290   111.12700643    77.13447208
 O     13   5   3     7.376464290590    72.97714369   220.63434780
 H     43  13   5     1.839752178959    54.19199391   248.02593418
 C     43  13   5     2.693381290152    57.30352005    37.61311502
 H     45  43  13     1.999468827006   109.43520262    96.12715022
 H     45  43  13     2.042490566011   112.53087154   334.92101866
 H     45  43  13     2.012311210211   108.08709052   213.12559978
 O     48  45  43     5.401848247085   115.57181162   266.83224054
 H     49  48  45     1.870726335714   101.64579572   169.03135983
 C     49  48  45     2.727331511888   100.62235288    60.28965676
 H     51  49  48     2.082071879626   107.25809614   318.78240855
 H     51  49  48     2.117205190713   115.74010971   196.76842004
 H     51  49  48     2.031629246222   113.66842250    72.09355401
 O     37   6   3     5.541068999868    72.47419014    87.21252762
 H     55  37   6     1.826609765112    12.31641964   289.96456013
 C     55  37   6     2.746321682469   120.99652658   333.03716481
 H     57  55  37     2.033159056490   113.28917879   218.37798873
 H     57  55  37     2.054531935432   114.31077941    90.17789497
 H     57  55  37     1.892384955901   106.02886421   329.85488075
 O     25   4   3     5.748147266472    69.97874789   185.06185967
 H     61  25   4     1.810885504043    62.10104162   306.53254609
 C     61  25   4     2.867032022061   157.67173178   352.13997502
 H     63  61  25     2.081222518895   109.06139141   167.29190839
 H     63  61  25     2.045798518269   106.99405700    51.03531811
 H     63  61  25     2.117597605351   108.99232784   292.50715152
 O     59  57  55     5.772951242548   124.41025409   348.23573484
 H     67  59  57     1.826390673711   115.08035301   106.70765159
 C     67  59  57     2.721282252486   135.31591918   268.26329431
 H     69  67  59     2.134251750549   109.89020845    24.34470716
 H     69  67  59     2.024688794607   108.93002261   267.40706266
 H     69  67  59     2.024584604337   108.41551042   144.97076852
 O     32  31  18     5.590048222177   165.61350047   197.86010895
 H     73  32  31     1.834055314976   137.18591418   111.68460701
 C     73  32  31     2.741923801517    82.00896661     8.96022801
 H     75  73  32     2.072027499951   118.11046947    22.64855642
 H     75  73  32     2.098907382005   106.41145228   258.16573008
 H     75  73  32     2.048122504736   111.10958263   142.63885079
 O     12   9   7     4.987455271796   112.10337571    93.67639739
 H     79  12   9     1.798532107340    98.75731600   325.96928383
 C     79  12   9     2.586699105973   144.32601541   189.88365113
 H     81  79  12     2.143454587777   110.33242853   305.67179398
 H     81  79  12     2.058394037877   112.16213023   180.56611341
 H     81  79  12     2.228454572844   106.43284851    58.02527885
 O     61  25   4     5.365983893840    87.04862864   109.55289746
 H     85  61  25     1.784553968810    12.19724723   206.10052919
 C     85  61  25     2.661321763902   103.23176965   286.00736767
 H     87  85  61     2.094947950216   108.06690561   228.80519611
 H     87  85  61     2.123588092330   104.65772825   106.50751497
 H     87  85  61     2.090355946051   114.60232531   348.12244754
 O     44  43  13     3.747555851034   160.11385146   289.07852924
 H     91  44  43     1.768840841803   121.34575131   356.06698495
 C     91  44  43     2.791178882135   108.55200852   233.17953632
 H     93  91  44     2.127762918449   108.05056960   288.74322369
 H     93  91  44     2.091892261804   110.89859966   175.61256263
 H     93  91  44     2.019842138828   112.12454978    59.16294103
 O     59  57  55     5.936596781785   125.96528156   148.47345494
 H     97  59  57     1.770792462546   168.41482606   178.03057794
 C     97  59  57     2.573793602909    65.02951391   158.41542402
 H     99  97  59     2.049870350056   108.08297289   334.88948537
 H     99  97  59     2.067952673748   107.85649241   215.18171248
 H     99  97  59     1.993695195240   108.68486960    94.72753552
 O     30  27  25     4.911174927411   146.81426150   149.14446715
 H    103  30  27     1.790834353496   123.21306764   112.04392418
 C    103  30  27     2.655121122866    94.84463833     0.44407652
 H    105 103  30     2.025108101238   107.68606786   270.99283742
 H    105 103  30     2.054578136595   107.38487810   157.14067513
 H    105 103  30     2.062288143093   110.63390576    36.38425607
 O     10   9   7     5.579660306183   108.49264860   109.15768838
 H    109  10   9     1.786621760114   161.19476557   180.56608769
 C    109  10   9     2.596633385682    83.45325364    68.85130897
 H    111 109  10     1.980802484236   108.51912425   305.99713466
 H    111 109  10     2.071201616073   109.59363411   187.11446411
 H    111 109  10     2.116924829825   105.31072098    61.04726457
 O     84  81  79     5.269729971326   111.06483986   282.48288871
 H    115  84  81     1.700352448787    57.62335835   266.05840067
 C    115  84  81     2.677834520478    63.48934532   137.10169341
 H    117 115  84     2.121121219142   110.78663862   193.38856866
 H    117 115  84     1.918252300497   101.30196655    76.68903161
 H    117 115  84     2.114095689650   108.34367620   320.33545964

---------------------
BASIS SET INFORMATION
---------------------
There are 3 groups of distinct atoms

 Group   1 Type O   : 11s6p2d1f contracted to 5s3p2d1f pattern {62111/411/11/1}
 Group   2 Type H   : 5s1p contracted to 3s1p pattern {311/1}
 Group   3 Type C   : 11s6p2d1f contracted to 5s3p2d1f pattern {62111/411/11/1}

Atom   0O    basis set group =>   1
Atom   1H    basis set group =>   2
Atom   2C    basis set group =>   3
Atom   3H    basis set group =>   2
Atom   4H    basis set group =>   2
Atom   5H    basis set group =>   2
Atom   6O    basis set group =>   1
Atom   7H    basis set group =>   2
Atom   8C    basis set group =>   3
Atom   9H    basis set group =>   2
Atom  10H    basis set group =>   2
Atom  11H    basis set group =>   2
Atom  12O    basis set group =>   1
Atom  13H    basis set group =>   2
Atom  14C    basis set group =>   3
Atom  15H    basis set group =>   2
Atom  16H    basis set group =>   2
Atom  17H    basis set group =>   2
Atom  18O    basis set group =>   1
Atom  19H    basis set group =>   2
Atom  20C    basis set group =>   3
Atom  21H    basis set group =>   2
Atom  22H    basis set group =>   2
Atom  23H    basis set group =>   2
Atom  24O    basis set group =>   1
Atom  25H    basis set group =>   2
Atom  26C    basis set group =>   3
Atom  27H    basis set group =>   2
Atom  28H    basis set group =>   2
Atom  29H    basis set group =>   2
Atom  30O    basis set group =>   1
Atom  31H    basis set group =>   2
Atom  32C    basis set group =>   3
Atom  33H    basis set group =>   2
Atom  34H    basis set group =>   2
Atom  35H    basis set group =>   2
Atom  36O    basis set group =>   1
Atom  37H    basis set group =>   2
Atom  38C    basis set group =>   3
Atom  39H    basis set group =>   2
Atom  40H    basis set group =>   2
Atom  41H    basis set group =>   2
Atom  42O    basis set group =>   1
Atom  43H    basis set group =>   2
Atom  44C    basis set group =>   3
Atom  45H    basis set group =>   2
Atom  46H    basis set group =>   2
Atom  47H    basis set group =>   2
Atom  48O    basis set group =>   1
Atom  49H    basis set group =>   2
Atom  50C    basis set group =>   3
Atom  51H    basis set group =>   2
Atom  52H    basis set group =>   2
Atom  53H    basis set group =>   2
Atom  54O    basis set group =>   1
Atom  55H    basis set group =>   2
Atom  56C    basis set group =>   3
Atom  57H    basis set group =>   2
Atom  58H    basis set group =>   2
Atom  59H    basis set group =>   2
Atom  60O    basis set group =>   1
Atom  61H    basis set group =>   2
Atom  62C    basis set group =>   3
Atom  63H    basis set group =>   2
Atom  64H    basis set group =>   2
Atom  65H    basis set group =>   2
Atom  66O    basis set group =>   1
Atom  67H    basis set group =>   2
Atom  68C    basis set group =>   3
Atom  69H    basis set group =>   2
Atom  70H    basis set group =>   2
Atom  71H    basis set group =>   2
Atom  72O    basis set group =>   1
Atom  73H    basis set group =>   2
Atom  74C    basis set group =>   3
Atom  75H    basis set group =>   2
Atom  76H    basis set group =>   2
Atom  77H    basis set group =>   2
Atom  78O    basis set group =>   1
Atom  79H    basis set group =>   2
Atom  80C    basis set group =>   3
Atom  81H    basis set group =>   2
Atom  82H    basis set group =>   2
Atom  83H    basis set group =>   2
Atom  84O    basis set group =>   1
Atom  85H    basis set group =>   2
Atom  86C    basis set group =>   3
Atom  87H    basis set group =>   2
Atom  88H    basis set group =>   2
Atom  89H    basis set group =>   2
Atom  90O    basis set group =>   1
Atom  91H    basis set group =>   2
Atom  92C    basis set group =>   3
Atom  93H    basis set group =>   2
Atom  94H    basis set group =>   2
Atom  95H    basis set group =>   2
Atom  96O    basis set group =>   1
Atom  97H    basis set group =>   2
Atom  98C    basis set group =>   3
Atom  99H    basis set group =>   2
Atom 100H    basis set group =>   2
Atom 101H    basis set group =>   2
Atom 102O    basis set group =>   1
Atom 103H    basis set group =>   2
Atom 104C    basis set group =>   3
Atom 105H    basis set group =>   2
Atom 106H    basis set group =>   2
Atom 107H    basis set group =>   2
Atom 108O    basis set group =>   1
Atom 109H    basis set group =>   2
Atom 110C    basis set group =>   3
Atom 111H    basis set group =>   2
Atom 112H    basis set group =>   2
Atom 113H    basis set group =>   2
Atom 114O    basis set group =>   1
Atom 115H    basis set group =>   2
Atom 116C    basis set group =>   3
Atom 117H    basis set group =>   2
Atom 118H    basis set group =>   2
Atom 119H    basis set group =>   2
---------------------------------
AUXILIARY/C BASIS SET INFORMATION
---------------------------------
There are 3 groups of distinct atoms

 Group   1 Type O   : 8s6p5d3f1g contracted to 8s6p4d3f1g pattern {11111111/111111/2111/111/1}
 Group   2 Type H   : 4s3p2d contracted to 4s2p1d pattern {1111/21/2}
 Group   3 Type C   : 8s6p5d3f1g contracted to 8s6p4d3f1g pattern {11111111/111111/2111/111/1}

Atom   0O    basis set group =>   1
Atom   1H    basis set group =>   2
Atom   2C    basis set group =>   3
Atom   3H    basis set group =>   2
Atom   4H    basis set group =>   2
Atom   5H    basis set group =>   2
Atom   6O    basis set group =>   1
Atom   7H    basis set group =>   2
Atom   8C    basis set group =>   3
Atom   9H    basis set group =>   2
Atom  10H    basis set group =>   2
Atom  11H    basis set group =>   2
Atom  12O    basis set group =>   1
Atom  13H    basis set group =>   2
Atom  14C    basis set group =>   3
Atom  15H    basis set group =>   2
Atom  16H    basis set group =>   2
Atom  17H    basis set group =>   2
Atom  18O    basis set group =>   1
Atom  19H    basis set group =>   2
Atom  20C    basis set group =>   3
Atom  21H    basis set group =>   2
Atom  22H    basis set group =>   2
Atom  23H    basis set group =>   2
Atom  24O    basis set group =>   1
Atom  25H    basis set group =>   2
Atom  26C    basis set group =>   3
Atom  27H    basis set group =>   2
Atom  28H    basis set group =>   2
Atom  29H    basis set group =>   2
Atom  30O    basis set group =>   1
Atom  31H    basis set group =>   2
Atom  32C    basis set group =>   3
Atom  33H    basis set group =>   2
Atom  34H    basis set group =>   2
Atom  35H    basis set group =>   2
Atom  36O    basis set group =>   1
Atom  37H    basis set group =>   2
Atom  38C    basis set group =>   3
Atom  39H    basis set group =>   2
Atom  40H    basis set group =>   2
Atom  41H    basis set group =>   2
Atom  42O    basis set group =>   1
Atom  43H    basis set group =>   2
Atom  44C    basis set group =>   3
Atom  45H    basis set group =>   2
Atom  46H    basis set group =>   2
Atom  47H    basis set group =>   2
Atom  48O    basis set group =>   1
Atom  49H    basis set group =>   2
Atom  50C    basis set group =>   3
Atom  51H    basis set group =>   2
Atom  52H    basis set group =>   2
Atom  53H    basis set group =>   2
Atom  54O    basis set group =>   1
Atom  55H    basis set group =>   2
Atom  56C    basis set group =>   3
Atom  57H    basis set group =>   2
Atom  58H    basis set group =>   2
Atom  59H    basis set group =>   2
Atom  60O    basis set group =>   1
Atom  61H    basis set group =>   2
Atom  62C    basis set group =>   3
Atom  63H    basis set group =>   2
Atom  64H    basis set group =>   2
Atom  65H    basis set group =>   2
Atom  66O    basis set group =>   1
Atom  67H    basis set group =>   2
Atom  68C    basis set group =>   3
Atom  69H    basis set group =>   2
Atom  70H    basis set group =>   2
Atom  71H    basis set group =>   2
Atom  72O    basis set group =>   1
Atom  73H    basis set group =>   2
Atom  74C    basis set group =>   3
Atom  75H    basis set group =>   2
Atom  76H    basis set group =>   2
Atom  77H    basis set group =>   2
Atom  78O    basis set group =>   1
Atom  79H    basis set group =>   2
Atom  80C    basis set group =>   3
Atom  81H    basis set group =>   2
Atom  82H    basis set group =>   2
Atom  83H    basis set group =>   2
Atom  84O    basis set group =>   1
Atom  85H    basis set group =>   2
Atom  86C    basis set group =>   3
Atom  87H    basis set group =>   2
Atom  88H    basis set group =>   2
Atom  89H    basis set group =>   2
Atom  90O    basis set group =>   1
Atom  91H    basis set group =>   2
Atom  92C    basis set group =>   3
Atom  93H    basis set group =>   2
Atom  94H    basis set group =>   2
Atom  95H    basis set group =>   2
Atom  96O    basis set group =>   1
Atom  97H    basis set group =>   2
Atom  98C    basis set group =>   3
Atom  99H    basis set group =>   2
Atom 100H    basis set group =>   2
Atom 101H    basis set group =>   2
Atom 102O    basis set group =>   1
Atom 103H    basis set group =>   2
Atom 104C    basis set group =>   3
Atom 105H    basis set group =>   2
Atom 106H    basis set group =>   2
Atom 107H    basis set group =>   2
Atom 108O    basis set group =>   1
Atom 109H    basis set group =>   2
Atom 110C    basis set group =>   3
Atom 111H    basis set group =>   2
Atom 112H    basis set group =>   2
Atom 113H    basis set group =>   2
Atom 114O    basis set group =>   1
Atom 115H    basis set group =>   2
Atom 116C    basis set group =>   3
Atom 117H    basis set group =>   2
Atom 118H    basis set group =>   2
Atom 119H    basis set group =>   2


           ************************************************************
           *        Program running with 24 parallel MPI-processes    *
           *              working on a common directory               *
           ************************************************************
------------------------------------------------------------------------------
                           ORCA GTO INTEGRAL CALCULATION
------------------------------------------------------------------------------

                         BASIS SET STATISTICS AND STARTUP INFO

 # of primitive gaussian shells          ... 1280
 # of primitive gaussian functions       ... 2480
 # of contracted shells                  ...  760
 # of contracted basis functions         ... 1720
 Highest angular momentum                ...    3
 Maximum contraction depth               ...    6
 Integral package used                   ... LIBINT
 Integral threshhold            Thresh   ...  2.500e-11
 Primitive cut-off              TCut     ...  2.500e-12


------------------------------ INTEGRAL EVALUATION ----------------------------


 * One electron integrals 
 Pre-screening matrix                    ... done
 Shell pair data                         ... done (   0.043 sec)



           ************************************************************
           *        Program running with 24 parallel MPI-processes    *
           *              working on a common directory               *
           ************************************************************
-------------------------------------------------------------------------------
                                 ORCA SCF
-------------------------------------------------------------------------------

------------
SCF SETTINGS
------------
Hamiltonian:
 Ab initio Hamiltonian  Method          .... Hartree-Fock(GTOs)


General Settings:
 Integral files         IntName         .... input
 Hartree-Fock type      HFTyp           .... RHF
 Total Charge           Charge          ....    0
 Multiplicity           Mult            ....    1
 Number of Electrons    NEL             ....  360
 Basis Dimension        Dim             .... 1720
 Nuclear Repulsion      ENuc            ....   5872.7765134097 Eh

Convergence Acceleration:
 DIIS                   CNVDIIS         .... on
   Start iteration      DIISMaxIt       ....    12
   Startup error        DIISStart       ....  0.200000
   # of expansion vecs  DIISMaxEq       ....     5
   Bias factor          DIISBfac        ....   1.050
   Max. coefficient     DIISMaxC        ....  10.000
 Newton-Raphson         CNVNR           .... off
 SOSCF                  CNVSOSCF        .... on
   Start iteration      SOSCFMaxIt      ....   150
   Startup grad/error   SOSCFStart      ....  0.003300
 Level Shifting         CNVShift        .... on
   Level shift para.    LevelShift      ....    0.2500
   Turn off err/grad.   ShiftErr        ....    0.0010
 Zerner damping         CNVZerner       .... off
 Static damping         CNVDamp         .... on
   Fraction old density DampFac         ....    0.7000
   Max. Damping (<1)    DampMax         ....    0.9800
   Min. Damping (>=0)   DampMin         ....    0.0000
   Turn off err/grad.   DampErr         ....    0.1000
 Fernandez-Rico         CNVRico         .... off

SCF Procedure:
 Maximum # iterations   MaxIter         ....   125
 SCF integral mode      SCFMode         .... Direct
   Integral package                     .... LIBINT
 Reset frequency        DirectResetFreq ....    20
 Integral Threshold     Thresh          ....  2.500e-11 Eh
 Primitive CutOff       TCut            ....  2.500e-12 Eh

Convergence Tolerance:
 Convergence Check Mode ConvCheckMode   .... Total+1el-Energy
 Convergence forced     ConvForced      .... 1
 Energy Change          TolE            ....  1.000e-08 Eh
 1-El. energy change                    ....  1.000e-05 Eh
 Orbital Gradient       TolG            ....  1.000e-05
 Orbital Rotation angle TolX            ....  1.000e-05
 DIIS Error             TolErr          ....  5.000e-07


Diagonalization of the overlap matrix:
Smallest eigenvalue                        ... 3.345e-04
Time for diagonalization                   ...    0.449 sec
Threshold for overlap eigenvalues          ... 1.000e-08
Number of eigenvalues below threshold      ... 0
Time for construction of square roots      ...    0.328 sec
Total time needed                          ...    0.788 sec

-------------------
DFT GRID GENERATION
-------------------

General Integration Accuracy     IntAcc      ...  4.340
Radial Grid Type                 RadialGrid  ... Gauss-Chebyshev
Angular Grid (max. acc.)         AngularGrid ... Lebedev-110
Angular grid pruning method      GridPruning ... 3 (G Style)
Weight generation scheme         WeightScheme... Becke
Basis function cutoff            BFCut       ...    1.0000e-11
Integration weight cutoff        WCut        ...    1.0000e-14
Grids for H and He will be reduced by one unit

# of grid points (after initial pruning)     ... 130960 (   0.0 sec)
# of grid points (after weights+screening)   ... 114693 (   0.3 sec)
nearest neighbour list constructed           ...    0.0 sec
Grid point re-assignment to atoms done       ...    0.0 sec
Grid point division into batches done        ...    0.1 sec
Reduced shell lists constructed in    0.3 sec

Total number of grid points                  ...   114693
Total number of batches                      ...     1851
Average number of points per batch           ...       61
Average number of grid points per atom       ...      956
Average number of shells per batch           ...   278.16 (36.60%)
Average number of basis functions per batch  ...   532.57 (30.96%)
Average number of large shells per batch     ...   146.75 (52.76%)
Average number of large basis fcns per batch ...   278.65 (52.32%)
Maximum spatial batch extension              ...   4.39,  3.62,  3.73 au
Average spatial batch extension              ...   0.08,  0.08,  0.08 au

Time for grid setup =    0.662 sec

------------------------------
INITIAL GUESS: MODEL POTENTIAL
------------------------------
Loading Hartree-Fock densities                     ... done
Calculating cut-offs                               ... done
Setting up the integral package                    ... done
Initializing the effective Hamiltonian             ... done
Starting the Coulomb interaction                   ... done (   0.7 sec)
Reading the grid                                   ... done
Mapping shells                                     ... done
Starting the XC term evaluation                    ... done (   0.2 sec)
Transforming the Hamiltonian                       ... done (   0.2 sec)
Diagonalizing the Hamiltonian                      ... done (   0.4 sec)
Back transforming the eigenvectors                 ... done (   0.1 sec)
Now organizing SCF variables                       ... done
                      ------------------
                      INITIAL GUESS DONE (   2.4 sec)
                      ------------------
--------------
SCF ITERATIONS
--------------
ITER       Energy         Delta-E        Max-DP      RMS-DP      [F,P]     Damp
               ***  Starting incremental Fock matrix formation  ***
  0  -2299.3902167240   0.000000000000 0.03831703  0.00031753  0.2928029 0.7000
  1  -2300.2239398683  -0.833723144307 0.02569446  0.00023925  0.2188627 0.7000
                               ***Turning on DIIS***
  2  -2300.7093257415  -0.485385873266 0.01501481  0.00014803  0.1627500 0.7000
  3  -2306.8126871058  -6.103361364237 0.00832058  0.00008452  0.1198934 0.7000
  4  -2305.7808324078   1.031854697940 0.01804657  0.00020832  0.0844984 0.0000
  5  -2301.9037101083   3.877122299562 0.00395086  0.00003072  0.0065843 0.0000
                      *** Initiating the SOSCF procedure ***
                           *** Shutting down DIIS ***
                      *** Re-Reading the Fockian *** 
                      *** Removing any level shift *** 
ITER      Energy       Delta-E        Grad      Rot      Max-DP    RMS-DP
  6  -2301.74134893   0.1623611774  0.000358  0.000358  0.002350  0.000016
               *** Restarting incremental Fock matrix formation ***
  7  -2301.70300509   0.0383438419  0.000176  0.000210  0.001009  0.000008
  8  -2301.70304781  -0.0000427165  0.000069  0.000139  0.000934  0.000006
  9  -2301.70305765  -0.0000098452  0.000016  0.000017  0.000128  0.000001
 10  -2301.70305801  -0.0000003628  0.000004  0.000009  0.000021  0.000000
                  ***Gradient check signals convergence***
              ***Rediagonalizing the Fockian in SOSCF/NRSCF***

               *****************************************************
               *                     SUCCESS                       *
               *           SCF CONVERGED AFTER  11 CYCLES          *
               *****************************************************


----------------
TOTAL SCF ENERGY
----------------

Total Energy       :        -2301.70305805 Eh          -62632.52439 eV

Components:
Nuclear Repulsion  :         5872.77651341 Eh          159806.37333 eV
Electronic Energy  :        -8174.47957146 Eh         -222438.89771 eV
One Electron Energy:       -14875.77383726 Eh         -404790.38526 eV
Two Electron Energy:         6701.29426580 Eh          182351.48754 eV

Virial components:
Potential Energy   :        -4601.92848459 Eh         -125224.84037 eV
Kinetic Energy     :         2300.22542654 Eh           62592.31599 eV
Virial Ratio       :            2.00064239


---------------
SCF CONVERGENCE
---------------

  Last Energy change         ...   -3.4158e-08  Tolerance :   1.0000e-08
  Last MAX-Density change    ...    8.8201e-06  Tolerance :   1.0000e-07
  Last RMS-Density change    ...    6.7636e-08  Tolerance :   5.0000e-09
  Last Orbital Gradient      ...    2.0819e-06  Tolerance :   1.0000e-05
  Last Orbital Rotation      ...    4.1492e-06  Tolerance :   1.0000e-05

             **** THE GBW FILE WAS UPDATED (input.gbw) ****
             **** DENSITY FILE WAS UPDATED (input.scfp) ****
             **** ENERGY FILE WAS UPDATED (input.en.tmp) ****
             **** THE GBW FILE WAS UPDATED (input.gbw) ****
             **** DENSITY FILE WAS UPDATED (input.scfp) ****
----------------
ORBITAL ENERGIES
----------------

  NO   OCC          E(Eh)            E(eV) 
   0   2.0000     -20.584572      -560.1347 
   1   2.0000     -20.573928      -559.8450 
   2   2.0000     -20.562712      -559.5398 
   3   2.0000     -20.548151      -559.1436 
   4   2.0000     -20.547995      -559.1394 
   5   2.0000     -20.546395      -559.0958 
   6   2.0000     -20.544665      -559.0487 
   7   2.0000     -20.543122      -559.0068 
   8   2.0000     -20.542099      -558.9789 
   9   2.0000     -20.540407      -558.9329 
  10   2.0000     -20.539794      -558.9162 
  11   2.0000     -20.537596      -558.8564 
  12   2.0000     -20.534828      -558.7811 
  13   2.0000     -20.531534      -558.6915 
  14   2.0000     -20.530221      -558.6557 
  15   2.0000     -20.525373      -558.5238 
  16   2.0000     -20.515158      -558.2458 
  17   2.0000     -20.505310      -557.9779 
  18   2.0000     -20.496271      -557.7319 
  19   2.0000     -20.495168      -557.7019 
  20   2.0000     -11.289706      -307.2085 
  21   2.0000     -11.286795      -307.1293 
  22   2.0000     -11.282586      -307.0148 
  23   2.0000     -11.279537      -306.9318 
  24   2.0000     -11.271494      -306.7130 
  25   2.0000     -11.271077      -306.7016 
  26   2.0000     -11.262618      -306.4714 
  27   2.0000     -11.261360      -306.4372 
  28   2.0000     -11.256872      -306.3151 
  29   2.0000     -11.256260      -306.2984 
  30   2.0000     -11.249267      -306.1081 
  31   2.0000     -11.249050      -306.1022 
  32   2.0000     -11.248473      -306.0865 
  33   2.0000     -11.243299      -305.9457 
  34   2.0000     -11.238527      -305.8159 
  35   2.0000     -11.236345      -305.7565 
  36   2.0000     -11.229166      -305.5611 
  37   2.0000     -11.228044      -305.5306 
  38   2.0000     -11.213857      -305.1446 
  39   2.0000     -11.210175      -305.0444 
  40   2.0000      -1.378811       -37.5193 
  41   2.0000      -1.377466       -37.4828 
  42   2.0000      -1.373417       -37.3726 
  43   2.0000      -1.368239       -37.2317 
  44   2.0000      -1.362938       -37.0874 
  45   2.0000      -1.361479       -37.0477 
  46   2.0000      -1.361280       -37.0423 
  47   2.0000      -1.356044       -36.8998 
  48   2.0000      -1.354823       -36.8666 
  49   2.0000      -1.351085       -36.7649 
  50   2.0000      -1.349673       -36.7265 
  51   2.0000      -1.345598       -36.6156 
  52   2.0000      -1.341600       -36.5068 
  53   2.0000      -1.324687       -36.0466 
  54   2.0000      -1.324442       -36.0399 
  55   2.0000      -1.317236       -35.8438 
  56   2.0000      -1.312261       -35.7084 
  57   2.0000      -1.306846       -35.5611 
  58   2.0000      -1.305271       -35.5182 
  59   2.0000      -1.285531       -34.9811 
  60   2.0000      -0.938900       -25.5488 
  61   2.0000      -0.935276       -25.4501 
  62   2.0000      -0.934304       -25.4237 
  63   2.0000      -0.927463       -25.2375 
  64   2.0000      -0.922510       -25.1028 
  65   2.0000      -0.921353       -25.0713 
  66   2.0000      -0.920272       -25.0419 
  67   2.0000      -0.916305       -24.9339 
  68   2.0000      -0.912552       -24.8318 
  69   2.0000      -0.910760       -24.7830 
  70   2.0000      -0.909694       -24.7540 
  71   2.0000      -0.907716       -24.7002 
  72   2.0000      -0.906322       -24.6623 
  73   2.0000      -0.904936       -24.6246 
  74   2.0000      -0.902975       -24.5712 
  75   2.0000      -0.894215       -24.3328 
  76   2.0000      -0.890403       -24.2291 
  77   2.0000      -0.886250       -24.1161 
  78   2.0000      -0.885729       -24.1019 
  79   2.0000      -0.866348       -23.5745 
  80   2.0000      -0.709244       -19.2995 
  81   2.0000      -0.705040       -19.1851 
  82   2.0000      -0.700946       -19.0737 
  83   2.0000      -0.700461       -19.0605 
  84   2.0000      -0.699983       -19.0475 
  85   2.0000      -0.698699       -19.0126 
  86   2.0000      -0.692214       -18.8361 
  87   2.0000      -0.690560       -18.7911 
  88   2.0000      -0.689692       -18.7675 
  89   2.0000      -0.680958       -18.5298 
  90   2.0000      -0.680531       -18.5182 
  91   2.0000      -0.677757       -18.4427 
  92   2.0000      -0.676770       -18.4159 
  93   2.0000      -0.675170       -18.3723 
  94   2.0000      -0.663627       -18.0582 
  95   2.0000      -0.658911       -17.9299 
  96   2.0000      -0.651425       -17.7262 
  97   2.0000      -0.645564       -17.5667 
  98   2.0000      -0.644570       -17.5397 
  99   2.0000      -0.640430       -17.4270 
 100   2.0000      -0.637553       -17.3487 
 101   2.0000      -0.629406       -17.1270 
 102   2.0000      -0.629284       -17.1237 
 103   2.0000      -0.628749       -17.1091 
 104   2.0000      -0.625969       -17.0335 
 105   2.0000      -0.623725       -16.9724 
 106   2.0000      -0.623081       -16.9549 
 107   2.0000      -0.620892       -16.8953 
 108   2.0000      -0.619206       -16.8495 
 109   2.0000      -0.614433       -16.7196 
 110   2.0000      -0.609845       -16.5947 
 111   2.0000      -0.607660       -16.5353 
 112   2.0000      -0.606819       -16.5124 
 113   2.0000      -0.606264       -16.4973 
 114   2.0000      -0.602863       -16.4047 
 115   2.0000      -0.600233       -16.3332 
 116   2.0000      -0.599952       -16.3255 
 117   2.0000      -0.599638       -16.3170 
 118   2.0000      -0.595781       -16.2120 
 119   2.0000      -0.594376       -16.1738 
 120   2.0000      -0.593943       -16.1620 
 121   2.0000      -0.592548       -16.1241 
 122   2.0000      -0.591430       -16.0936 
 123   2.0000      -0.590366       -16.0647 
 124   2.0000      -0.589837       -16.0503 
 125   2.0000      -0.582855       -15.8603 
 126   2.0000      -0.581401       -15.8207 
 127   2.0000      -0.580674       -15.8010 
 128   2.0000      -0.577921       -15.7260 
 129   2.0000      -0.575913       -15.6714 
 130   2.0000      -0.572556       -15.5800 
 131   2.0000      -0.570683       -15.5291 
 132   2.0000      -0.569491       -15.4966 
 133   2.0000      -0.565977       -15.4010 
 134   2.0000      -0.562239       -15.2993 
 135   2.0000      -0.558653       -15.2017 
 136   2.0000      -0.554739       -15.0952 
 137   2.0000      -0.548606       -14.9283 
 138   2.0000      -0.545356       -14.8399 
 139   2.0000      -0.531372       -14.4594 
 140   2.0000      -0.520405       -14.1609 
 141   2.0000      -0.519259       -14.1298 
 142   2.0000      -0.517544       -14.0831 
 143   2.0000      -0.506302       -13.7772 
 144   2.0000      -0.505875       -13.7656 
 145   2.0000      -0.503756       -13.7079 
 146   2.0000      -0.498457       -13.5637 
 147   2.0000      -0.497894       -13.5484 
 148   2.0000      -0.489657       -13.3242 
 149   2.0000      -0.489336       -13.3155 
 150   2.0000      -0.488095       -13.2817 
 151   2.0000      -0.484333       -13.1794 
 152   2.0000      -0.482741       -13.1360 
 153   2.0000      -0.477086       -12.9822 
 154   2.0000      -0.474143       -12.9021 
 155   2.0000      -0.473465       -12.8836 
 156   2.0000      -0.467969       -12.7341 
 157   2.0000      -0.467766       -12.7286 
 158   2.0000      -0.466441       -12.6925 
 159   2.0000      -0.464321       -12.6348 
 160   2.0000      -0.456822       -12.4308 
 161   2.0000      -0.455467       -12.3939 
 162   2.0000      -0.449664       -12.2360 
 163   2.0000      -0.448821       -12.2130 
 164   2.0000      -0.446157       -12.1406 
 165   2.0000      -0.444922       -12.1069 
 166   2.0000      -0.443917       -12.0796 
 167   2.0000      -0.440440       -11.9850 
 168   2.0000      -0.437094       -11.8939 
 169   2.0000      -0.436598       -11.8804 
 170   2.0000      -0.431926       -11.7533 
 171   2.0000      -0.430348       -11.7104 
 172   2.0000      -0.428138       -11.6502 
 173   2.0000      -0.426510       -11.6059 
 174   2.0000      -0.425333       -11.5739 
 175   2.0000      -0.418519       -11.3885 
 176   2.0000      -0.416708       -11.3392 
 177   2.0000      -0.405230       -11.0269 
 178   2.0000      -0.401927       -10.9370 
 179   2.0000      -0.395685       -10.7671 
 180   0.0000       0.102145         2.7795 
 181   0.0000       0.119459         3.2506 
 182   0.0000       0.120551         3.2804 
 183   0.0000       0.124735         3.3942 
 184   0.0000       0.129711         3.5296 
 185   0.0000       0.130124         3.5408 
 186   0.0000       0.132911         3.6167 
 187   0.0000       0.137440         3.7399 
 188   0.0000       0.143166         3.8958 
 189   0.0000       0.144587         3.9344 
 190   0.0000       0.154164         4.1950 
 191   0.0000       0.154664         4.2086 
 192   0.0000       0.158910         4.3242 
 193   0.0000       0.161531         4.3955 
 194   0.0000       0.162962         4.4344 
 195   0.0000       0.171438         4.6651 
 196   0.0000       0.172529         4.6947 
 197   0.0000       0.174612         4.7514 
 198   0.0000       0.178187         4.8487 
 199   0.0000       0.179660         4.8888 
 200   0.0000       0.182976         4.9790 
 201   0.0000       0.185931         5.0594 
 202   0.0000       0.189184         5.1480 
 203   0.0000       0.193148         5.2558 
 204   0.0000       0.195448         5.3184 
 205   0.0000       0.198846         5.4109 
 206   0.0000       0.202492         5.5101 
 207   0.0000       0.202859         5.5201 
 208   0.0000       0.204541         5.5658 
 209   0.0000       0.208336         5.6691 
 210   0.0000       0.214004         5.8234 
 211   0.0000       0.215037         5.8515 
 212   0.0000       0.218086         5.9344 
 213   0.0000       0.218606         5.9486 
 214   0.0000       0.220146         5.9905 
 215   0.0000       0.221778         6.0349 
 216   0.0000       0.224733         6.1153 
 217   0.0000       0.226266         6.1570 
 218   0.0000       0.228005         6.2043 
 219   0.0000       0.229648         6.2490 
 220   0.0000       0.233027         6.3410 
 221   0.0000       0.233739         6.3604 
 222   0.0000       0.234973         6.3939 
 223   0.0000       0.238421         6.4878 
 224   0.0000       0.240683         6.5493 
 225   0.0000       0.243759         6.6330 
 226   0.0000       0.245015         6.6672 
 227   0.0000       0.250456         6.8152 
 228   0.0000       0.251254         6.8370 
 229   0.0000       0.253488         6.8978 
 230   0.0000       0.253895         6.9088 
 231   0.0000       0.257021         6.9939 
 232   0.0000       0.257768         7.0142 
 233   0.0000       0.260841         7.0978 
 234   0.0000       0.262191         7.1346 
 235   0.0000       0.266247         7.2450 
 236   0.0000       0.267700         7.2845 
 237   0.0000       0.269135         7.3235 
 238   0.0000       0.271914         7.3992 
 239   0.0000       0.273945         7.4544 
 240   0.0000       0.275728         7.5029 
 241   0.0000       0.278757         7.5854 
 242   0.0000       0.280640         7.6366 
 243   0.0000       0.281643         7.6639 
 244   0.0000       0.283838         7.7236 
 245   0.0000       0.285017         7.7557 
 246   0.0000       0.288788         7.8583 
 247   0.0000       0.291709         7.9378 
 248   0.0000       0.293134         7.9766 
 249   0.0000       0.296681         8.0731 
 250   0.0000       0.298485         8.1222 
 251   0.0000       0.301126         8.1941 
 252   0.0000       0.301249         8.1974 
 253   0.0000       0.304615         8.2890 
 254   0.0000       0.306906         8.3513 
 255   0.0000       0.308727         8.4009 
 256   0.0000       0.311376         8.4730 
 257   0.0000       0.313528         8.5315 
 258   0.0000       0.314025         8.5451 
 259   0.0000       0.316945         8.6245 
 260   0.0000       0.319751         8.7009 
 261   0.0000       0.322238         8.7685 
 262   0.0000       0.323100         8.7920 
 263   0.0000       0.325375         8.8539 
 264   0.0000       0.326932         8.8963 
 265   0.0000       0.333227         9.0676 
 266   0.0000       0.334091         9.0911 
 267   0.0000       0.335655         9.1336 
 268   0.0000       0.338743         9.2177 
 269   0.0000       0.342446         9.3184 
 270   0.0000       0.344734         9.3807 
 271   0.0000       0.346537         9.4298 
 272   0.0000       0.348636         9.4869 
 273   0.0000       0.354233         9.6392 
 274   0.0000       0.356878         9.7111 
 275   0.0000       0.360081         9.7983 
 276   0.0000       0.361092         9.8258 
 277   0.0000       0.362235         9.8569 
 278   0.0000       0.366483         9.9725 
 279   0.0000       0.370040        10.0693 
 280   0.0000       0.371555        10.1105 
 281   0.0000       0.373972        10.1763 
 282   0.0000       0.374831        10.1997 
 283   0.0000       0.380518        10.3544 
 284   0.0000       0.383470        10.4347 
 285   0.0000       0.386313        10.5121 
 286   0.0000       0.387559        10.5460 
 287   0.0000       0.393892        10.7184 
 288   0.0000       0.397461        10.8155 
 289   0.0000       0.402771        10.9599 
 290   0.0000       0.407084        11.0773 
 291   0.0000       0.409050        11.1308 
 292   0.0000       0.413252        11.2451 
 293   0.0000       0.417334        11.3562 
 294   0.0000       0.422992        11.5102 
 295   0.0000       0.424329        11.5466 
 296   0.0000       0.427214        11.6251 
 297   0.0000       0.428661        11.6645 
 298   0.0000       0.432337        11.7645 
 299   0.0000       0.437444        11.9034 
 300   0.0000       0.441875        12.0240 
 301   0.0000       0.445582        12.1249 
 302   0.0000       0.451379        12.2827 
 303   0.0000       0.453551        12.3418 
 304   0.0000       0.456157        12.4127 
 305   0.0000       0.457353        12.4452 
 306   0.0000       0.462751        12.5921 
 307   0.0000       0.464768        12.6470 
 308   0.0000       0.470063        12.7911 
 309   0.0000       0.475348        12.9349 
 310   0.0000       0.477220        12.9858 
 311   0.0000       0.480097        13.0641 
 312   0.0000       0.481854        13.1119 
 313   0.0000       0.487638        13.2693 
 314   0.0000       0.490093        13.3361 
 315   0.0000       0.492881        13.4120 
 316   0.0000       0.495798        13.4914 
 317   0.0000       0.500950        13.6315 
 318   0.0000       0.504200        13.7200 
 319   0.0000       0.506922        13.7941 
 320   0.0000       0.510742        13.8980 
 321   0.0000       0.516197        14.0464 
 322   0.0000       0.517602        14.0847 
 323   0.0000       0.518279        14.1031 
 324   0.0000       0.523733        14.2515 
 325   0.0000       0.525194        14.2912 
 326   0.0000       0.528741        14.3878 
 327   0.0000       0.532407        14.4875 
 328   0.0000       0.534115        14.5340 
 329   0.0000       0.535171        14.5628 
 330   0.0000       0.539299        14.6751 
 331   0.0000       0.542513        14.7625 
 332   0.0000       0.543901        14.8003 
 333   0.0000       0.546951        14.8833 
 334   0.0000       0.551562        15.0088 
 335   0.0000       0.554521        15.0893 
 336   0.0000       0.555810        15.1244 
 337   0.0000       0.558209        15.1896 
 338   0.0000       0.561135        15.2693 
 339   0.0000       0.562365        15.3027 
 340   0.0000       0.565656        15.3923 
 341   0.0000       0.567610        15.4455 
 342   0.0000       0.568829        15.4786 
 343   0.0000       0.573589        15.6081 
 344   0.0000       0.576847        15.6968 
 345   0.0000       0.577821        15.7233 
 346   0.0000       0.578597        15.7444 
 347   0.0000       0.580738        15.8027 
 348   0.0000       0.584860        15.9149 
 349   0.0000       0.585616        15.9354 
 350   0.0000       0.587057        15.9746 
 351   0.0000       0.589070        16.0294 
 352   0.0000       0.593303        16.1446 
 353   0.0000       0.597311        16.2537 
 354   0.0000       0.600715        16.3463 
 355   0.0000       0.601666        16.3722 
 356   0.0000       0.602391        16.3919 
 357   0.0000       0.603566        16.4239 
 358   0.0000       0.603950        16.4343 
 359   0.0000       0.607807        16.5393 
 360   0.0000       0.610207        16.6046 
 361   0.0000       0.612055        16.6549 
 362   0.0000       0.613991        16.7075 
 363   0.0000       0.615747        16.7553 
 364   0.0000       0.618409        16.8278 
 365   0.0000       0.618910        16.8414 
 366   0.0000       0.622299        16.9336 
 367   0.0000       0.624287        16.9877 
 368   0.0000       0.625910        17.0319 
 369   0.0000       0.627675        17.0799 
 370   0.0000       0.630039        17.1442 
 371   0.0000       0.631665        17.1885 
 372   0.0000       0.634367        17.2620 
 373   0.0000       0.637136        17.3373 
 374   0.0000       0.637578        17.3494 
 375   0.0000       0.643389        17.5075 
 376   0.0000       0.644323        17.5329 
 377   0.0000       0.647301        17.6140 
 378   0.0000       0.647881        17.6297 
 379   0.0000       0.648869        17.6566 
 380   0.0000       0.651408        17.7257 
 381   0.0000       0.655158        17.8278 
 382   0.0000       0.658777        17.9262 
 383   0.0000       0.659211        17.9380 
 384   0.0000       0.662211        18.0197 
 385   0.0000       0.664880        18.0923 
 386   0.0000       0.665976        18.1221 
 387   0.0000       0.668673        18.1955 
 388   0.0000       0.669986        18.2313 
 389   0.0000       0.670946        18.2574 
 390   0.0000       0.673121        18.3166 
 391   0.0000       0.675730        18.3875 
 392   0.0000       0.677571        18.4376 
 393   0.0000       0.682440        18.5701 
 394   0.0000       0.683562        18.6007 
 395   0.0000       0.684735        18.6326 
 396   0.0000       0.685169        18.6444 
 397   0.0000       0.686609        18.6836 
 398   0.0000       0.689744        18.7689 
 399   0.0000       0.690796        18.7975 
 400   0.0000       0.692882        18.8543 
[...]
  VA   - Mayer's total valence
  BVA  - Mayer's bonded valence
  FA   - Mayer's free valence

  ATOM       NA         ZA         QA         VA         BVA        FA
  0 O      8.6061     8.0000    -0.6061     1.7325     1.7325     0.0000
  1 H      0.6274     1.0000     0.3726     0.8842     0.8842    -0.0000
  2 C      6.0878     6.0000    -0.0878     3.8509     3.8509    -0.0000
  3 H      0.9252     1.0000     0.0748     0.9712     0.9712    -0.0000
  4 H      0.9147     1.0000     0.0853     0.9959     0.9959    -0.0000
  5 H      0.8462     1.0000     0.1538     0.9609     0.9609    -0.0000
  6 O      8.5761     8.0000    -0.5761     1.7778     1.7778     0.0000
  7 H      0.6499     1.0000     0.3501     0.8891     0.8891     0.0000
  8 C      6.0996     6.0000    -0.0996     3.8516     3.8516     0.0000
  9 H      0.8741     1.0000     0.1259     0.9746     0.9746     0.0000
 10 H      0.9335     1.0000     0.0665     0.9663     0.9663    -0.0000
 11 H      0.8590     1.0000     0.1410     0.9542     0.9542     0.0000
 12 O      8.5387     8.0000    -0.5387     1.8035     1.8035    -0.0000
 13 H      0.6586     1.0000     0.3414     0.8915     0.8915     0.0000
 14 C      6.0502     6.0000    -0.0502     3.9213     3.9213    -0.0000
 15 H      0.9277     1.0000     0.0723     0.9617     0.9617    -0.0000
 16 H      0.9077     1.0000     0.0923     0.9544     0.9544    -0.0000
 17 H      0.9089     1.0000     0.0911     0.9760     0.9760    -0.0000
 18 O      8.5713     8.0000    -0.5713     1.7690     1.7690     0.0000
 19 H      0.6740     1.0000     0.3260     0.9034     0.9034     0.0000
 20 C      6.0676     6.0000    -0.0676     3.8669     3.8669     0.0000
 21 H      0.8697     1.0000     0.1303     0.9708     0.9708    -0.0000
 22 H      0.9101     1.0000     0.0899     0.9698     0.9698    -0.0000
 23 H      0.9007     1.0000     0.0993     0.9545     0.9545     0.0000
 24 O      8.5724     8.0000    -0.5724     1.7928     1.7928     0.0000
 25 H      0.6602     1.0000     0.3398     0.8901     0.8901     0.0000
 26 C      6.0930     6.0000    -0.0930     3.8653     3.8653     0.0000
 27 H      0.8928     1.0000     0.1072     0.9614     0.9614     0.0000
 28 H      0.9122     1.0000     0.0878     0.9566     0.9566     0.0000
 29 H      0.8552     1.0000     0.1448     0.9643     0.9643     0.0000
 30 O      8.5437     8.0000    -0.5437     1.7720     1.7720     0.0000
 31 H      0.6638     1.0000     0.3362     0.8995     0.8995     0.0000
 32 C      6.0936     6.0000    -0.0936     3.8941     3.8941    -0.0000
 33 H      0.8704     1.0000     0.1296     0.9623     0.9623     0.0000
 34 H      0.9140     1.0000     0.0860     0.9635     0.9635    -0.0000
 35 H      0.9091     1.0000     0.0909     0.9543     0.9543    -0.0000
 36 O      8.5759     8.0000    -0.5759     1.7569     1.7569    -0.0000
 37 H      0.6648     1.0000     0.3352     0.8941     0.8941     0.0000
 38 C      6.0466     6.0000    -0.0466     3.8485     3.8485    -0.0000
 39 H      0.8901     1.0000     0.1099     0.9610     0.9610    -0.0000
 40 H      0.9215     1.0000     0.0785     0.9670     0.9670    -0.0000
 41 H      0.8945     1.0000     0.1055     0.9739     0.9739    -0.0000
 42 O      8.6055     8.0000    -0.6055     1.7396     1.7396     0.0000
 43 H      0.6390     1.0000     0.3610     0.8970     0.8970     0.0000
 44 C      6.0472     6.0000    -0.0472     3.8589     3.8589     0.0000
 45 H      0.9143     1.0000     0.0857     0.9671     0.9671     0.0000
 46 H      0.8965     1.0000     0.1035     0.9783     0.9783    -0.0000
 47 H      0.9171     1.0000     0.0829     0.9761     0.9761    -0.0000
 48 O      8.5802     8.0000    -0.5802     1.7833     1.7833    -0.0000
 49 H      0.6445     1.0000     0.3555     0.8794     0.8794    -0.0000
 50 C      6.1150     6.0000    -0.1150     3.8493     3.8493    -0.0000
 51 H      0.8575     1.0000     0.1425     0.9625     0.9625    -0.0000
 52 H      0.9016     1.0000     0.0984     0.9556     0.9556     0.0000
 53 H      0.8803     1.0000     0.1197     0.9658     0.9658    -0.0000
 54 O      8.5901     8.0000    -0.5901     1.7683     1.7683    -0.0000
 55 H      0.6577     1.0000     0.3423     0.9152     0.9152    -0.0000
 56 C      6.0584     6.0000    -0.0584     3.9207     3.9207    -0.0000
 57 H      0.9107     1.0000     0.0893     0.9575     0.9575    -0.0000
 58 H      0.8998     1.0000     0.1002     0.9553     0.9553    -0.0000
 59 H      0.8930     1.0000     0.1070     0.9398     0.9398    -0.0000
 60 O      8.5444     8.0000    -0.5444     1.8041     1.8041    -0.0000
 61 H      0.6657     1.0000     0.3343     0.9137     0.9137    -0.0000
 62 C      6.1540     6.0000    -0.1540     3.8657     3.8657     0.0000
 63 H      0.8721     1.0000     0.1279     0.9652     0.9652     0.0000
 64 H      0.8737     1.0000     0.1263     0.9571     0.9571     0.0000
 65 H      0.8893     1.0000     0.1107     0.9675     0.9675    -0.0000
 66 O      8.5334     8.0000    -0.5334     1.7993     1.7993    -0.0000
 67 H      0.6805     1.0000     0.3195     0.9079     0.9079     0.0000
 68 C      6.0694     6.0000    -0.0694     3.8887     3.8887    -0.0000
 69 H      0.8836     1.0000     0.1164     0.9769     0.9769    -0.0000
 70 H      0.9351     1.0000     0.0649     0.9646     0.9646    -0.0000
 71 H      0.9019     1.0000     0.0981     0.9729     0.9729    -0.0000
 72 O      8.5370     8.0000    -0.5370     1.8083     1.8083    -0.0000
 73 H      0.6591     1.0000     0.3409     0.8938     0.8938     0.0000
 74 C      6.1081     6.0000    -0.1081     3.9076     3.9076    -0.0000
 75 H      0.9064     1.0000     0.0936     0.9429     0.9429    -0.0000
 76 H      0.8937     1.0000     0.1063     0.9621     0.9621    -0.0000
 77 H      0.8943     1.0000     0.1057     0.9602     0.9602     0.0000
 78 O      8.5586     8.0000    -0.5586     1.7528     1.7528     0.0000
 79 H      0.6297     1.0000     0.3703     0.8812     0.8812     0.0000
 80 C      6.0742     6.0000    -0.0742     3.9234     3.9234     0.0000
 81 H      0.8973     1.0000     0.1027     0.9608     0.9608    -0.0000
 82 H      0.9022     1.0000     0.0978     0.9573     0.9573    -0.0000
 83 H      0.9605     1.0000     0.0395     0.9566     0.9566    -0.0000
 84 O      8.5559     8.0000    -0.5559     1.7710     1.7710    -0.0000
 85 H      0.6431     1.0000     0.3569     0.9030     0.9030     0.0000
 86 C      6.0523     6.0000    -0.0523     3.9097     3.9097    -0.0000
 87 H      0.9254     1.0000     0.0746     0.9663     0.9663    -0.0000
 88 H      0.9038     1.0000     0.0962     0.9687     0.9687    -0.0000
 89 H      0.9237     1.0000     0.0763     0.9622     0.9622    -0.0000
 90 O      8.5377     8.0000    -0.5377     1.8149     1.8149    -0.0000
 91 H      0.6729     1.0000     0.3271     0.9071     0.9071    -0.0000
 92 C      6.1063     6.0000    -0.1063     3.8764     3.8764    -0.0000
 93 H      0.8957     1.0000     0.1043     0.9634     0.9634    -0.0000
 94 H      0.8960     1.0000     0.1040     0.9636     0.9636     0.0000
 95 H      0.8807     1.0000     0.1193     0.9586     0.9586    -0.0000
 96 O      8.5271     8.0000    -0.5271     1.7875     1.7875    -0.0000
 97 H      0.6843     1.0000     0.3157     0.9110     0.9110    -0.0000
 98 C      6.0419     6.0000    -0.0419     3.9105     3.9105    -0.0000
 99 H      0.9223     1.0000     0.0777     0.9516     0.9516    -0.0000
100 H      0.9108     1.0000     0.0892     0.9594     0.9594    -0.0000
101 H      0.9216     1.0000     0.0784     0.9669     0.9669    -0.0000
102 O      8.5388     8.0000    -0.5388     1.7884     1.7884     0.0000
103 H      0.6736     1.0000     0.3264     0.9044     0.9044     0.0000
104 C      6.0642     6.0000    -0.0642     3.9021     3.9021     0.0000
105 H      0.9201     1.0000     0.0799     0.9706     0.9706    -0.0000
106 H      0.9089     1.0000     0.0911     0.9642     0.9642     0.0000
107 H      0.9008     1.0000     0.0992     0.9578     0.9578     0.0000
108 O      8.5359     8.0000    -0.5359     1.7793     1.7793     0.0000
109 H      0.6751     1.0000     0.3249     0.9053     0.9053     0.0000
110 C      6.0796     6.0000    -0.0796     3.9100     3.9100    -0.0000
111 H      0.8894     1.0000     0.1106     0.9471     0.9471    -0.0000
112 H      0.9063     1.0000     0.0937     0.9660     0.9660    -0.0000
113 H      0.9173     1.0000     0.0827     0.9621     0.9621    -0.0000
114 O      8.5255     8.0000    -0.5255     1.8073     1.8073    -0.0000
115 H      0.6949     1.0000     0.3051     0.9238     0.9238    -0.0000
116 C      6.0802     6.0000    -0.0802     3.8898     3.8898    -0.0000
117 H      0.8907     1.0000     0.1093     0.9702     0.9702     0.0000
118 H      0.9061     1.0000     0.0939     0.9672     0.9672     0.0000
119 H      0.8997     1.0000     0.1003     0.9439     0.9439     0.0000

  Mayer bond orders larger than 0.100000
B(  0-O ,  1-H ) :   0.8488 B(  0-O ,  2-C ) :   0.8986 B(  2-C ,  3-H ) :   0.9858 
B(  2-C ,  4-H ) :   0.9954 B(  2-C ,  5-H ) :   0.9878 B(  6-O ,  7-H ) :   0.8748 
B(  6-O ,  8-C ) :   0.8943 B(  8-C ,  9-H ) :   0.9808 B(  8-C , 10-H ) :   0.9867 
B(  8-C , 11-H ) :   0.9925 B( 12-O , 13-H ) :   0.8877 B( 12-O , 14-C ) :   0.9295 
B( 14-C , 15-H ) :   0.9862 B( 14-C , 16-H ) :   0.9902 B( 14-C , 17-H ) :   1.0037 
B( 18-O , 19-H ) :   0.8932 B( 18-O , 20-C ) :   0.8923 B( 20-C , 21-H ) :   0.9890 
B( 20-C , 22-H ) :   0.9985 B( 20-C , 23-H ) :   0.9872 B( 24-O , 25-H ) :   0.8842 
B( 24-O , 26-C ) :   0.9098 B( 26-C , 27-H ) :   0.9766 B( 26-C , 28-H ) :   0.9820 
B( 26-C , 29-H ) :   0.9879 B( 30-O , 31-H ) :   0.8790 B( 30-O , 32-C ) :   0.9184 
B( 32-C , 33-H ) :   0.9766 B( 32-C , 34-H ) :   1.0003 B( 32-C , 35-H ) :   0.9863 
B( 36-O , 37-H ) :   0.8796 B( 36-O , 38-C ) :   0.8907 B( 38-C , 39-H ) :   0.9918 
B( 38-C , 40-H ) :   0.9898 B( 38-C , 41-H ) :   0.9886 B( 42-O , 43-H ) :   0.8670 
B( 42-O , 44-C ) :   0.9103 B( 44-C , 45-H ) :   0.9937 B( 44-C , 46-H ) :   0.9860 
B( 44-C , 47-H ) :   0.9964 B( 48-O , 49-H ) :   0.8716 B( 48-O , 50-C ) :   0.8956 
B( 50-C , 51-H ) :   0.9851 B( 50-C , 52-H ) :   0.9790 B( 50-C , 53-H ) :   0.9882 
B( 54-O , 55-H ) :   0.8678 B( 54-O , 56-C ) :   0.9354 B( 56-C , 57-H ) :   0.9826 
B( 56-C , 58-H ) :   0.9940 B( 56-C , 59-H ) :   0.9967 B( 60-O , 61-H ) :   0.8904 
B( 60-O , 62-C ) :   0.9159 B( 62-C , 63-H ) :   0.9828 B( 62-C , 64-H ) :   0.9773 
B( 62-C , 65-H ) :   0.9815 B( 66-O , 67-H ) :   0.8950 B( 66-O , 68-C ) :   0.9285 
B( 68-C , 69-H ) :   0.9791 B( 68-C , 70-H ) :   0.9867 B( 68-C , 71-H ) :   0.9926 
B( 72-O , 73-H ) :   0.8857 B( 72-O , 74-C ) :   0.9446 B( 74-C , 75-H ) :   0.9724 
B( 74-C , 76-H ) :   0.9937 B( 74-C , 77-H ) :   0.9911 B( 78-O , 79-H ) :   0.8327 
B( 78-O , 80-C ) :   0.9522 B( 80-C , 81-H ) :   0.9830 B( 80-C , 82-H ) :   0.9835 
B( 80-C , 83-H ) :   1.0044 B( 84-O , 85-H ) :   0.8797 B( 84-O , 86-C ) :   0.9294 
B( 86-C , 87-H ) :   0.9865 B( 86-C , 88-H ) :   0.9951 B( 86-C , 89-H ) :   0.9904 
B( 90-O , 91-H ) :   0.8959 B( 90-O , 92-C ) :   0.9182 B( 92-C , 93-H ) :   0.9857 
B( 92-C , 94-H ) :   0.9863 B( 92-C , 95-H ) :   0.9806 B( 96-O , 97-H ) :   0.9054 
B( 96-O , 98-C ) :   0.9344 B( 98-C , 99-H ) :   0.9830 B( 98-C ,100-H ) :   1.0073 
B( 98-C ,101-H ) :   0.9925 B(102-O ,103-H ) :   0.8956 B(102-O ,104-C ) :   0.9265 
B(104-C ,105-H ) :   0.9872 B(104-C ,106-H ) :   0.9959 B(104-C ,107-H ) :   0.9893 
B(108-O ,109-H ) :   0.8986 B(108-O ,110-C ) :   0.9247 B(110-C ,111-H ) :   0.9856 
B(110-C ,112-H ) :   0.9911 B(110-C ,113-H ) :   1.0003 B(114-O ,115-H ) :   0.9146 
B(114-O ,116-C ) :   0.9200 B(116-C ,117-H ) :   0.9843 B(116-C ,118-H ) :   1.0083 
B(116-C ,119-H ) :   0.9853 

-------
TIMINGS
-------

Total SCF time: 0 days 0 hours 13 min 31 sec 

Total time                  ....     811.258 sec
Sum of individual times     ....     806.613 sec  ( 99.4%)

Fock matrix formation       ....     792.624 sec  ( 97.7%)
Diagonalization             ....       3.608 sec  (  0.4%)
Density matrix formation    ....       0.473 sec  (  0.1%)
Population analysis         ....       0.896 sec  (  0.1%)
Initial guess               ....       1.752 sec  (  0.2%)
Orbital Transformation      ....       0.000 sec  (  0.0%)
Orbital Orthonormalization  ....       0.000 sec  (  0.0%)
DIIS solution               ....       3.775 sec  (  0.5%)
SOSCF solution              ....       2.823 sec  (  0.3%)


           ************************************************************
           *        Program running with 24 parallel MPI-processes    *
           *              working on a common directory               *
           ************************************************************

------------------------------------------------------------------------------
                                ORCA  MP2 
------------------------------------------------------------------------------

Freezing NCore=80 chemical core electrons

-------------
RI-MP2 ENERGY
-------------
Dimension of the basis                    ... 1720
Memory devoted to MP2                     ... 8000 MB   
Data format for buffers                   ... DOUBLE
Compression type for matrix containers    ... UNCOMPRESSED
Overall scaling of the MP2 energy         ...   1.000e+00
Calculating two index integrals           ... done (    0.119 sec)
Cholesky decomposition of V**-1           ... done (    1.719 sec)

-----------------
RI-TRANSFORMATION (AUX index driven)
-----------------

Dimension of the orbital-basis         ... 1720
Dimension of the aux-basis             ... 4240
Transformation of internal/external MOs...   40- 179 to  180-1719
Number Format for Storage              ... Double (8 Byte)
Integral mode                          ... Direct

First Phase: integral generation and transformation of MO indices
  Aux angular momentum 0               ... done (    1.978 sec)
  Aux angular momentum 1               ... done (    3.160 sec)
  Aux angular momentum 2               ... done (    2.997 sec)
  Aux angular momentum 3               ... done (    1.945 sec)
  Aux angular momentum 4               ... done (    0.978 sec)
Closing buffer VIA ( 6.81 GB; CompressionRatio= 1.00)
  Phase 1 completed in    11.417 sec
Second Phase: sorting and transformation of aux index

IA-Transformation
Memory available                       ... 7635 MB 
Max. # MO pairs treated in a batch     ... 6    
# of internal orbitals                 ... 140
# batches for internal orbitals        ... 1
Closing buffer IAV ( 0.29 GB; CompressionRatio= 1.00)
(ia|v) transformation done in     8.673 sec

  Phase 2 completed in    19.863 sec
RI-Integral transformation completed in    31.292 sec
Opening buffers                              ... done

Starting loop over batches of integrals:

Operator 0  - window                       ... ( 40-179)x(180-1719)
Operator 0  - Memory available             ...  8000 MB
Operator 0  - Memory needed per MO         ...  49.8 MB
Operator 0  - Number of orbitals per batch ... 6
Operator 0  - Number of batches            ... 1

OPERATOR  0   PASS   0:  MOs    40 ...   45 +   46 ...   51 +   52 ...   57 +   58 ...   63
                            +   64 ...   69 +   70 ...   75 +   76 ...   81 +   82 ...   87
                            +   88 ...   93 +   94 ...   99 +  100 ...  105 +  106 ...  111
                            +  112 ...  117 +  118 ...  123 +  124 ...  129 +  130 ...  135
                            +  136 ...  141 +  142 ...  147 +  148 ...  153 +  154 ...  159
                            +  160 ...  165 +  166 ...  171 +  172 ...  177 +  178 ...  179
  Reading integrals       ... ok
  Internal MO  42
  Internal MO  45
Time spent in pair loops =     8.320 sec
Deleting buffer (Ka|jb)[aa] ...done

-----------------------------------------------
 RI-MP2 CORRELATION ENERGY:     -8.403963974 Eh
-----------------------------------------------


-------
TIMINGS
-------

Total time                :  329.264 sec
Integral trafo            :   31.309 sec (  9.5%)
I/O of integrals          :    0.337 sec (  0.1%)
K(i,j) Operators          :    7.119 sec (  2.2%)
T(i,j) pair energies      :    0.539 sec (  0.2%)
V-calculation             :    0.119 sec (  0.0%)
V**(-1/2)                 :    1.719 sec (  0.5%)
Gamma(ia|P)               :    0.000 sec (  0.0%)
Gamma-Trafo               :    0.000 sec (  0.0%)
D(virtual)                :    0.000 sec (  0.0%)
D(internal)               :    0.000 sec (  0.0%)
W(virtual)                :    0.000 sec (  0.0%)
W(internal)               :    0.000 sec (  0.0%)
L(virtual)                :    0.000 sec (  0.0%)
L(internal)               :    0.000 sec (  0.0%)
G(D)                      :    0.000 sec (  0.0%)
G(Z)                      :    0.000 sec (  0.0%)
Z-Vector Solution         :    0.000 sec (  0.0%)
3-Index Derivative        :    0.000 sec (  0.0%)
2-Index Derivative        :    0.000 sec (  0.0%)
Separable Gradient        :    0.000 sec (  0.0%)


---------------------------------------
MP2 TOTAL ENERGY:    -2310.107022022 Eh
---------------------------------------

-------------------------   --------------------
FINAL SINGLE POINT ENERGY     -2310.107022021773
-------------------------   --------------------


                            ***************************************
                            *     ORCA property calculations      *
                            ***************************************


  WARNING: The energy has been calculated at the MP2 level but the densities
           used in the property calculations are still SCF densities
           MP2 response densities have not been calculated 
           use %mp2 Density relaxed end
           or  %mp2 Density unrelaxed end

                                    ---------------------
                                    Active property flags
                                    ---------------------
   (+) Dipole Moment


------------------------------------------------------------------------------
                       ORCA ELECTRIC PROPERTIES CALCULATION
------------------------------------------------------------------------------

Dipole Moment Calculation                       ... on
Quadrupole Moment Calculation                   ... off
Polarizability Calculation                      ... off
GBWName                                         ... input.gbw
Electron density file                           ... input.scfp
The origin for moment calculation is the CENTER OF MASS  = (-0.093252, -0.413569  0.395203)

-------------
DIPOLE MOMENT
-------------
                                X             Y             Z
Electronic contribution:      2.70604      10.18795       1.88125
Nuclear contribution   :     -2.36967     -13.82156      -1.16157
                        -----------------------------------------
Total Dipole Moment    :      0.33637      -3.63361       0.71968
                        -----------------------------------------
Magnitude (a.u.)       :      3.71943
Magnitude (Debye)      :      9.45405



--------------------
Rotational spectrum 
--------------------
 
Rotational constants in cm-1:     0.001533     0.001485     0.001306 
Rotational constants in MHz :    45.966777    44.524473    39.147098 

 Dipole components along the rotational axes: 
x,y,z [a.u.] :     1.571331     1.216558    -3.144057 
x,y,z [Debye]:     3.994005     3.092246    -7.991557 

 

Timings for individual modules:

Sum of individual times         ...     1148.680 sec (=  19.145 min)
GTO integral calculation        ...        4.681 sec (=   0.078 min)   0.4 %
SCF iterations                  ...      812.676 sec (=  13.545 min)  70.7 %
MP2 module                      ...      331.323 sec (=   5.522 min)  28.8 %
                             ****ORCA TERMINATED NORMALLY****
TOTAL RUN TIME: 0 days 0 hours 19 minutes 10 seconds 755 msec
