
                                 *****************
                                 * O   R   C   A *
                                 *****************

           --- An Ab Initio, DFT and Semiempirical electronic structure package ---

                  #######################################################
                  #                        -***-                        #
                  #          Department of theory and spectroscopy      #
                  #               Directorship: Frank Neese             #
                  #        Max Planck Institute fuer Kohlenforschung    #
                  #                Kaiser Wilhelm Platz 1               #
                  #                 D-45470 Muelheim/Ruhr               #
                  #                      Germany                        #
                  #                                                     #
                  #                  All rights reserved                #
                  #                        -***-                        #
                  #######################################################


                         Program Version 4.2.0 -  RELEASE  -


 With contributions from (in alphabetic order):
   Daniel Aravena         : Magnetic Suceptibility
   Michael Atanasov       : Ab Initio Ligand Field Theory (pilot matlab implementation)
   Alexander A. Auer      : GIAO ZORA, VPT2
   Ute Becker             : Parallelization
   Giovanni Bistoni       : ED, misc. LED, open-shell LED, HFLED
   Martin Brehm           : Molecular dynamics
   Dmytro Bykov           : SCF Hessian
   Vijay G. Chilkuri      : MRCI spin determinant printing, contributions to CSF-ICE
   Dipayan Datta          : RHF DLPNO-CCSD density
   Achintya Kumar Dutta   : EOM-CC, STEOM-CC
   Dmitry Ganyushin       : Spin-Orbit,Spin-Spin,Magnetic field MRCI
   Miquel Garcia          : C-PCM Hessian, Gaussian charge scheme
   Yang Guo               : DLPNO-NEVPT2, CIM, IAO-localization
   Andreas Hansen         : Spin unrestricted coupled pair/coupled cluster methods
   Benjamin Helmich-Paris : CASSCF linear response (MC-RPA)
   Lee Huntington         : MR-EOM, pCC
   Robert Izsak           : Overlap fitted RIJCOSX, COSX-SCS-MP3, EOM
   Christian Kollmar      : KDIIS, OOCD, Brueckner-CCSD(T), CCSD density
   Simone Kossmann        : Meta GGA functionals, TD-DFT gradient, OOMP2, MP2 Hessian
   Martin Krupicka        : AUTO-CI
   Lucas Lang             : DCDCAS
   Dagmar Lenk            : GEPOL surface, SMD
   Dimitrios Liakos       : Extrapolation schemes; Compound Job, initial MDCI parallelization
   Dimitrios Manganas     : Further ROCIS development; embedding schemes
   Dimitrios Pantazis     : SARC Basis sets
   Taras Petrenko         : DFT Hessian,TD-DFT gradient, ASA, ECA, R-Raman, ABS, FL, XAS/XES, NRVS
   Peter Pinski           : DLPNO-MP2, DLPNO-MP2 Gradient
   Christoph Reimann      : Effective Core Potentials
   Marius Retegan         : Local ZFS, SOC
   Christoph Riplinger    : Optimizer, TS searches, QM/MM, DLPNO-CCSD(T), (RO)-DLPNO pert. Triples
   Tobias Risthaus        : Range-separated hybrids, TD-DFT gradient, RPA, STAB
   Michael Roemelt        : Original ROCIS implementation
   Masaaki Saitow         : Open-shell DLPNO-CCSD energy and density
   Barbara Sandhoefer     : DKH picture change effects
   Avijit Sen             : IP-ROCIS
   Kantharuban Sivalingam : CASSCF convergence, NEVPT2, FIC-MRCI
   Bernardo de Souza      : ESD, SOC TD-DFT
   Georgi Stoychev        : AutoAux, RI-MP2 NMR
   Willem Van den Heuvel  : Paramagnetic NMR
   Boris Wezisla          : Elementary symmetry handling
   Frank Wennmohs         : Technical directorship


 We gratefully acknowledge several colleagues who have allowed us to
 interface, adapt or use parts of their codes:
   Stefan Grimme, W. Hujo, H. Kruse,             : VdW corrections, initial TS optimization,
                  C. Bannwarth                     DFT functionals, gCP, sTDA/sTD-DF
   Ed Valeev, F. Pavosevic, A. Kumar             : LibInt (2-el integral package), F12 methods
   Garnet Chan, S. Sharma, J. Yang, R. Olivares  : DMRG
   Ulf Ekstrom                                   : XCFun DFT Library
   Mihaly Kallay                                 : mrcc  (arbitrary order and MRCC methods)
   Andreas Klamt, Michael Diedenhofen            : otool_cosmo (COSMO solvation model)
   Jiri Pittner, Ondrej Demel                    : Mk-CCSD
   Frank Weinhold                                : gennbo (NPA and NBO analysis)
   Christopher J. Cramer and Donald G. Truhlar   : smd solvation model
   Lars Goerigk                                  : TD-DFT with DH, B97 family of functionals
   V. Asgeirsson, H. Jonsson                     : NEB implementation
   FAccTs GmbH                                   : IRC, NEB, NEB-TS, Multilevel, MM, QM/MM, CI optimization
   S Lehtola, MJT Oliveira, MAL Marques          : LibXC Library


 Your calculation uses the libint2 library for the computation of 2-el integrals
 For citations please refer to: http://libint.valeyev.net

 Your ORCA version has been built with support for libXC version: 4.2.3
 For citations please refer to: https://tddft.org/programs/libxc/

 This ORCA versions uses:
   CBLAS   interface :  Fast vector & matrix operations
   LAPACKE interface :  Fast linear algebra routines
   SCALAPACK package :  Parallel linear algebra routines


----- Orbital basis set information -----
Your calculation utilizes the basis: def2-TZVP
   F. Weigend and R. Ahlrichs, Phys. Chem. Chem. Phys. 7, 3297 (2005).

----- AuxC basis set information -----
Your calculation utilizes the auxiliary basis: def2-TZVP/C
  H-La, Hf-Rn : A. Hellweg, C. Hattig, S. Hofener and W. Klopper, Theor. Chem. Acc. 117, 587 (2007).
        Ce-Lu : J. Chmela and M. E. Harding, Mol. Phys. (2018).

================================================================================
                                        WARNINGS
                       Please study these warnings very carefully!
================================================================================


WARNING: No MP2 level density has been requested!
         To caclulate MP2 level properties use
         %mp2 Density relaxed end
         or
         %mp2 Density unrelaxed end

INFO   : the flag for use of LIBINT has been found!

================================================================================
                                       INPUT FILE
================================================================================
NAME = input.inp
|  1> ! RI-MP2 def2-TZVP def2-TZVP/C TightSCF FrozenCore
|  2> 
|  3> %pal nprocs 24 end
|  4> %maxcore 8000
|  5> %scf ConvForced true end
|  6> 
|  7> *xyz  0  1
|  8> O     0.00000     0.00000     0.00000
|  9> H    -0.70026    -0.62915     0.08934
| 10> C     0.87795    -0.23893     1.03079
| 11> H     0.96587     0.71823     1.57400
| 12> H     1.83718    -0.60676     0.66456
| 13> H     0.51217    -0.96426     1.73689
| 14> O    -0.06035     0.56475    -2.81895
| 15> H     0.70797     0.36886    -2.25150
| 16> C     0.06442     0.06828    -4.17230
| 17> H    -0.22157     0.82343    -4.88087
| 18> H    -0.45937    -0.83062    -4.26167
| 19> H     1.08328    -0.05448    -4.38688
| 20> O     2.46367     0.91143    -1.54141
| 21> H     2.59184     1.52422    -0.81681
| 22> C     3.74316     0.71087    -2.12348
| 23> H     3.91345    -0.32039    -2.44765
| 24> H     4.52249     0.93691    -1.41818
| 25> H     3.81779     1.34702    -2.96013
| 26> O    -2.40288    -1.52942     1.20564
| 27> H    -3.30698    -1.72491     1.47573
| 28> C    -1.65305    -2.74377     0.92907
| 29> H    -1.25423    -2.74311    -0.12878
| 30> H    -2.23744    -3.58761     1.18255
| 31> H    -0.82780    -2.71281     1.61620
| 32> O     0.42434     3.18557    -1.22194
| 33> H     0.46382     2.20641    -1.29442
| 34> C    -0.35287     3.63661    -2.29379
| 35> H    -0.16445     4.73324    -2.45022
| 36> H    -1.37221     3.48393    -2.09897
| 37> H    -0.06745     3.07005    -3.21746
| 38> O     1.61028    -3.65187    -0.05200
| 39> H     1.97956    -3.22991     0.72906
| 40> C     2.12687    -5.01135     0.11770
| 41> H     1.85357    -5.60852    -0.72304
| 42> H     1.71363    -5.49896     0.98146
| 43> H     3.18811    -4.94999     0.20772
| 44> O     3.27456     2.30660     0.51753
| 45> H     2.64408     2.79221     1.03863
| 46> C     4.59747     2.71169     0.84951
| 47> H     5.24712     1.84856     0.73763
| 48> H     4.55988     2.92584     1.96368
| 49> H     4.92955     3.53454     0.24336
| 50> O     3.35886    -2.83115     2.12140
| 51> H     4.09135    -2.85273     1.51410
| 52> C     3.64112    -3.74747     3.18137
| 53> H     2.97751    -3.53500     4.06722
| 54> H     4.68658    -3.63510     3.40105
| 55> H     3.43340    -4.74023     2.73836
| 56> O     1.77366     3.75697     2.80020
| 57> H     0.89853     4.09828     2.99334
| 58> C     2.18038     3.06208     3.96642
| 59> H     3.23277     2.89807     3.88316
| 60> H     1.69124     2.09080     4.01213
| 61> H     1.95663     3.60461     4.86012
| 62> O    -1.06780     3.68315     3.32112
| 63> H    -1.59032     3.54886     4.12394
| 64> C    -1.13055     2.51711     2.53616
| 65> H    -0.38158     2.55847     1.77654
| 66> H    -2.14000     2.43249     2.14582
| 67> H    -0.99357     1.63689     3.13392
| 68> O    -5.34865    -0.18487    -1.04645
| 69> H    -5.94109    -0.48059    -1.75193
| 70> C    -4.01671    -0.11340    -1.57191
| 71> H    -3.58784     0.91097    -1.54296
| 72> H    -4.00308    -0.54562    -2.60872
| 73> H    -3.38310    -0.69612    -0.97093
| 74> O    -4.88485     2.45165     0.38867
| 75> H    -5.25571     1.58858     0.05233
| 76> C    -4.83859     2.40755     1.83096
| 77> H    -4.29217     3.26154     2.18968
| 78> H    -4.38912     1.55499     2.16839
| 79> H    -5.80945     2.54295     2.27999
| 80> O     4.55985    -3.57420    -1.04349
| 81> H     3.98028    -3.09771    -1.68522
| 82> C     5.56734    -4.21736    -1.78216
| 83> H     5.57481    -5.26052    -1.50495
| 84> H     6.50686    -3.80251    -1.63918
| 85> H     5.33424    -4.16160    -2.85981
| 86> O    -5.53251    -1.35891     2.24354
| 87> H    -5.06775    -0.88621     2.96671
| 88> C    -6.81166    -0.88483     2.08686
| 89> H    -7.25582    -1.29515     1.18648
| 90> H    -6.76939     0.18756     1.89345
| 91> H    -7.50596    -1.06673     2.97712
| 92> O     0.49110    -3.86406    -4.82053
| 93> H     0.71858    -4.77263    -5.13018
| 94> C     1.27571    -3.67312    -3.66262
| 95> H     0.91973    -2.75942    -3.13880
| 96> H     2.33220    -3.48045    -3.87518
| 97> H     1.19258    -4.53421    -3.01336
| 98> O    -3.23254    -4.38856     3.54974
| 99> H    -2.52221    -4.27823     4.16290
|100> C    -4.45456    -3.80205     4.07156
|101> H    -5.23569    -3.85019     3.29487
|102> H    -4.32213    -2.76367     4.40718
|103> H    -4.79870    -4.40263     4.93148
|104> O     4.39395    -1.42184    -4.58371
|105> H     4.96533    -0.66967    -4.71322
|106> C     4.79628    -2.43774    -5.53720
|107> H     4.05672    -3.20395    -5.61193
|108> H     5.75423    -2.91750    -5.30194
|109> H     4.91111    -2.04224    -6.59227
|110> O     1.48364     2.91588    -5.64069
|111> H     1.66526     2.95710    -6.56610
|112> C     2.70374     3.06249    -4.97228
|113> H     2.47881     2.99289    -3.86750
|114> H     3.14857     3.96453    -5.27959
|115> H     3.32506     2.23489    -5.19224
|116> O    -0.10263    -1.82536     6.26336
|117> H    -0.79842    -1.24448     6.53210
|118> C     1.05975    -1.06818     6.12096
|119> H     1.90808    -1.70204     6.13543
|120> H     1.10695    -0.38772     6.92973
|121> H     0.97811    -0.53493     5.19361
|122> O     2.65820     6.27521     0.22395
|123> H     2.60320     5.67178     0.97515
|124> C     2.95969     5.57264    -1.05781
|125> H     3.45886     6.23779    -1.72474
|126> H     2.04146     5.23085    -1.57475
|127> H     3.55468     4.68447    -0.84680
|128> *
|129> 
|130>                          ****END OF INPUT****
================================================================================

                       ****************************
                       * Single Point Calculation *
                       ****************************

---------------------------------
CARTESIAN COORDINATES (ANGSTROEM)
---------------------------------
  O      0.000000    0.000000    0.000000
  H     -0.700260   -0.629150    0.089340
  C      0.877950   -0.238930    1.030790
  H      0.965870    0.718230    1.574000
  H      1.837180   -0.606760    0.664560
  H      0.512170   -0.964260    1.736890
  O     -0.060350    0.564750   -2.818950
  H      0.707970    0.368860   -2.251500
  C      0.064420    0.068280   -4.172300
  H     -0.221570    0.823430   -4.880870
  H     -0.459370   -0.830620   -4.261670
  H      1.083280   -0.054480   -4.386880
  O      2.463670    0.911430   -1.541410
  H      2.591840    1.524220   -0.816810
  C      3.743160    0.710870   -2.123480
  H      3.913450   -0.320390   -2.447650
  H      4.522490    0.936910   -1.418180
  H      3.817790    1.347020   -2.960130
  O     -2.402880   -1.529420    1.205640
  H     -3.306980   -1.724910    1.475730
  C     -1.653050   -2.743770    0.929070
  H     -1.254230   -2.743110   -0.128780
  H     -2.237440   -3.587610    1.182550
  H     -0.827800   -2.712810    1.616200
  O      0.424340    3.185570   -1.221940
  H      0.463820    2.206410   -1.294420
  C     -0.352870    3.636610   -2.293790
  H     -0.164450    4.733240   -2.450220
  H     -1.372210    3.483930   -2.098970
  H     -0.067450    3.070050   -3.217460
  O      1.610280   -3.651870   -0.052000
  H      1.979560   -3.229910    0.729060
  C      2.126870   -5.011350    0.117700
  H      1.853570   -5.608520   -0.723040
  H      1.713630   -5.498960    0.981460
  H      3.188110   -4.949990    0.207720
  O      3.274560    2.306600    0.517530
  H      2.644080    2.792210    1.038630
  C      4.597470    2.711690    0.849510
  H      5.247120    1.848560    0.737630
  H      4.559880    2.925840    1.963680
  H      4.929550    3.534540    0.243360
  O      3.358860   -2.831150    2.121400
  H      4.091350   -2.852730    1.514100
  C      3.641120   -3.747470    3.181370
  H      2.977510   -3.535000    4.067220
  H      4.686580   -3.635100    3.401050
  H      3.433400   -4.740230    2.738360
  O      1.773660    3.756970    2.800200
  H      0.898530    4.098280    2.993340
  C      2.180380    3.062080    3.966420
  H      3.232770    2.898070    3.883160
  H      1.691240    2.090800    4.012130
  H      1.956630    3.604610    4.860120
  O     -1.067800    3.683150    3.321120
  H     -1.590320    3.548860    4.123940
  C     -1.130550    2.517110    2.536160
  H     -0.381580    2.558470    1.776540
  H     -2.140000    2.432490    2.145820
  H     -0.993570    1.636890    3.133920
  O     -5.348650   -0.184870   -1.046450
  H     -5.941090   -0.480590   -1.751930
  C     -4.016710   -0.113400   -1.571910
  H     -3.587840    0.910970   -1.542960
  H     -4.003080   -0.545620   -2.608720
  H     -3.383100   -0.696120   -0.970930
  O     -4.884850    2.451650    0.388670
  H     -5.255710    1.588580    0.052330
  C     -4.838590    2.407550    1.830960
  H     -4.292170    3.261540    2.189680
  H     -4.389120    1.554990    2.168390
  H     -5.809450    2.542950    2.279990
  O      4.559850   -3.574200   -1.043490
  H      3.980280   -3.097710   -1.685220
  C      5.567340   -4.217360   -1.782160
  H      5.574810   -5.260520   -1.504950
  H      6.506860   -3.802510   -1.639180
  H      5.334240   -4.161600   -2.859810
  O     -5.532510   -1.358910    2.243540
  H     -5.067750   -0.886210    2.966710
  C     -6.811660   -0.884830    2.086860
  H     -7.255820   -1.295150    1.186480
  H     -6.769390    0.187560    1.893450
  H     -7.505960   -1.066730    2.977120
  O      0.491100   -3.864060   -4.820530
  H      0.718580   -4.772630   -5.130180
  C      1.275710   -3.673120   -3.662620
  H      0.919730   -2.759420   -3.138800
  H      2.332200   -3.480450   -3.875180
  H      1.192580   -4.534210   -3.013360
  O     -3.232540   -4.388560    3.549740
  H     -2.522210   -4.278230    4.162900
  C     -4.454560   -3.802050    4.071560
  H     -5.235690   -3.850190    3.294870
  H     -4.322130   -2.763670    4.407180
  H     -4.798700   -4.402630    4.931480
  O      4.393950   -1.421840   -4.583710
  H      4.965330   -0.669670   -4.713220
  C      4.796280   -2.437740   -5.537200
  H      4.056720   -3.203950   -5.611930
  H      5.754230   -2.917500   -5.301940
  H      4.911110   -2.042240   -6.592270
  O      1.483640    2.915880   -5.640690
  H      1.665260    2.957100   -6.566100
  C      2.703740    3.062490   -4.972280
  H      2.478810    2.992890   -3.867500
  H      3.148570    3.964530   -5.279590
  H      3.325060    2.234890   -5.192240
  O     -0.102630   -1.825360    6.263360
  H     -0.798420   -1.244480    6.532100
  C      1.059750   -1.068180    6.120960
  H      1.908080   -1.702040    6.135430
  H      1.106950   -0.387720    6.929730
  H      0.978110   -0.534930    5.193610
  O      2.658200    6.275210    0.223950
  H      2.603200    5.671780    0.975150
  C      2.959690    5.572640   -1.057810
  H      3.458860    6.237790   -1.724740
  H      2.041460    5.230850   -1.574750
  H      3.554680    4.684470   -0.846800

----------------------------
CARTESIAN COORDINATES (A.U.)
----------------------------
  NO LB      ZA    FRAG     MASS         X           Y           Z
   0 O     8.0000    0    15.999    0.000000    0.000000    0.000000
   1 H     1.0000    0     1.008   -1.323300   -1.188921    0.168828
   2 C     6.0000    0    12.011    1.659085   -0.451512    1.947911
   3 H     1.0000    0     1.008    1.825230    1.357258    2.974429
   4 H     1.0000    0     1.008    3.471767   -1.146610    1.255836
   5 H     1.0000    0     1.008    0.967861   -1.822187    3.282246
   6 O     8.0000    0    15.999   -0.114045    1.067223   -5.327043
   7 H     1.0000    0     1.008    1.337869    0.697044   -4.254718
   8 C     6.0000    0    12.011    0.121736    0.129031   -7.884504
   9 H     1.0000    0     1.008   -0.418707    1.556057   -9.223508
  10 H     1.0000    0     1.008   -0.868083   -1.569644   -8.053389
  11 H     1.0000    0     1.008    2.047103   -0.102952   -8.290002
  12 O     8.0000    0    15.999    4.655662    1.722353   -2.912843
  13 H     1.0000    0     1.008    4.897868    2.880358   -1.543547
  14 C     6.0000    0    12.011    7.073547    1.343350   -4.012796
  15 H     1.0000    0     1.008    7.395349   -0.605449   -4.625388
  16 H     1.0000    0     1.008    8.546268    1.770503   -2.679972
  17 H     1.0000    0     1.008    7.214578    2.545499   -5.593835
  18 O     8.0000    0    15.999   -4.540785   -2.890185    2.278329
  19 H     1.0000    0     1.008   -6.249287   -3.259608    2.788726
  20 C     6.0000    0    12.011   -3.123812   -5.184974    1.755688
  21 H     1.0000    0     1.008   -2.370151   -5.183727   -0.243359
  22 H     1.0000    0     1.008   -4.228149   -6.779600    2.234696
  23 H     1.0000    0     1.008   -1.564315   -5.126468    3.054175
  24 O     8.0000    0    15.999    0.801886    6.019855   -2.309132
  25 H     1.0000    0     1.008    0.876493    4.169511   -2.446099
  26 C     6.0000    0    12.011   -0.666828    6.872197   -4.334635
  27 H     1.0000    0     1.008   -0.310765    8.944527   -4.630245
  28 H     1.0000    0     1.008   -2.593101    6.583674   -3.966478
  29 H     1.0000    0     1.008   -0.127462    5.801554   -6.080118
  30 O     8.0000    0    15.999    3.042988   -6.901034   -0.098266
  31 H     1.0000    0     1.008    3.740826   -6.103645    1.377724
  32 C     6.0000    0    12.011    4.019202   -9.470079    0.222421
  33 H     1.0000    0     1.008    3.502740  -10.598567   -1.366348
  34 H     1.0000    0     1.008    3.238291  -10.391528    1.854691
  35 H     1.0000    0     1.008    6.024655   -9.354125    0.392534
  36 O     8.0000    0    15.999    6.188022    4.358842    0.977990
  37 H     1.0000    0     1.008    4.996587    5.276512    1.962726
  38 C     6.0000    0    12.011    8.687959    5.124351    1.605341
  39 H     1.0000    0     1.008    9.915620    3.493272    1.393919
  40 H     1.0000    0     1.008    8.616924    5.529036    3.710817
  41 H     1.0000    0     1.008    9.315499    6.679313    0.459884
  42 O     8.0000    0    15.999    6.347326   -5.350098    4.008865
  43 H     1.0000    0     1.008    7.731531   -5.390878    2.861234
  44 C     6.0000    0    12.011    6.880720   -7.081692    6.011918
  45 H     1.0000    0     1.008    5.626678   -6.680182    7.685932
  46 H     1.0000    0     1.008    8.856353   -6.869343    6.427053
  47 H     1.0000    0     1.008    6.488186   -8.957737    5.174750
  48 O     8.0000    0    15.999    3.351732    7.099644    5.291611
  49 H     1.0000    0     1.008    1.697976    7.744627    5.656593
  50 C     6.0000    0    12.011    4.120321    5.786493    7.495448
  51 H     1.0000    0     1.008    6.109050    5.476559    7.338109
  52 H     1.0000    0     1.008    3.195980    3.951039    7.581827
  53 H     1.0000    0     1.008    3.697495    6.811726    9.184296
  54 O     8.0000    0    15.999   -2.017850    6.960145    6.276007
  55 H     1.0000    0     1.008   -3.005269    6.706373    7.793117
  56 C     6.0000    0    12.011   -2.136430    4.756649    4.792648
  57 H     1.0000    0     1.008   -0.721082    4.834808    3.357174
  58 H     1.0000    0     1.008   -4.044014    4.596740    4.055012
  59 H     1.0000    0     1.008   -1.877575    3.093274    5.922251
  60 O     8.0000    0    15.999  -10.107484   -0.349354   -1.977504
  61 H     1.0000    0     1.008  -11.227033   -0.908183   -3.310668
  62 C     6.0000    0    12.011   -7.590482   -0.214295   -2.970479
  63 H     1.0000    0     1.008   -6.780035    1.721484   -2.915772
  64 H     1.0000    0     1.008   -7.564725   -1.031072   -4.929766
  65 H     1.0000    0     1.008   -6.393132   -1.315476   -1.834792
  66 O     8.0000    0    15.999   -9.231029    4.632947    0.734480
  67 H     1.0000    0     1.008   -9.931853    3.001981    0.098889
  68 C     6.0000    0    12.011   -9.143610    4.549610    3.460013
  69 H     1.0000    0     1.008   -8.111026    6.163417    4.137896
  70 H     1.0000    0     1.008   -8.294235    2.938505    4.097663
  71 H     1.0000    0     1.008  -10.978269    4.805479    4.308557
  72 O     8.0000    0    15.999    8.616868   -6.754259   -1.971910
  73 H     1.0000    0     1.008    7.521639   -5.853824   -3.184604
  74 C     6.0000    0    12.011   10.520748   -7.969655   -3.367794
  75 H     1.0000    0     1.008   10.534864   -9.940942   -2.843943
  76 H     1.0000    0     1.008   12.296183   -7.185703   -3.097601
  77 H     1.0000    0     1.008   10.080253   -7.864284   -5.404258
  78 O     8.0000    0    15.999  -10.454929   -2.567968    4.239676
  79 H     1.0000    0     1.008   -9.576660   -1.674694    5.606269
  80 C     6.0000    0    12.011  -12.872172   -1.672086    3.943594
  81 H     1.0000    0     1.008  -13.711513   -2.447479    2.242122
  82 H     1.0000    0     1.008  -12.792293    0.354437    3.578102
  83 H     1.0000    0     1.008  -14.184209   -2.015828    5.625941
  84 O     8.0000    0    15.999    0.928045   -7.302015   -9.109482
  85 H     1.0000    0     1.008    1.357919   -9.018964   -9.694635
  86 C     6.0000    0    12.011    2.410743   -6.941191   -6.921349
  87 H     1.0000    0     1.008    1.738038   -5.214548   -5.931472
  88 H     1.0000    0     1.008    4.407219   -6.577097   -7.323029
  89 H     1.0000    0     1.008    2.253650   -8.568415   -5.694425
  90 O     8.0000    0    15.999   -6.108615   -8.293177    6.708036
  91 H     1.0000    0     1.008   -4.766286   -8.084683    7.866741
  92 C     6.0000    0    12.011   -8.417898   -7.184833    7.694133
  93 H     1.0000    0     1.008   -9.894020   -7.275805    6.226402
  94 H     1.0000    0     1.008   -8.167642   -5.222579    8.328363
  95 H     1.0000    0     1.008   -9.068229   -8.319765    9.319147
  96 O     8.0000    0    15.999    8.303362   -2.686888   -8.661957
  97 H     1.0000    0     1.008    9.383114   -1.265493   -8.906695
  98 C     6.0000    0    12.011    9.063656   -4.606661  -10.463792
  99 H     1.0000    0     1.008    7.666090   -6.054588  -10.605011
 100 H     1.0000    0     1.008   10.873919   -5.513276  -10.019215
 101 H     1.0000    0     1.008    9.280653   -3.859274  -12.457585
 102 O     8.0000    0    15.999    2.803673    5.510215  -10.659359
 103 H     1.0000    0     1.008    3.146885    5.588109  -12.408131
 104 C     6.0000    0    12.011    5.109328    5.787267   -9.396247
 105 H     1.0000    0     1.008    4.684272    5.655742   -7.308516
 106 H     1.0000    0     1.008    5.949935    7.491876   -9.976979
 107 H     1.0000    0     1.008    6.283453    4.223330   -9.811912
 108 O     8.0000    0    15.999   -0.193943   -3.449430   11.836035
 109 H     1.0000    0     1.008   -1.508795   -2.351726   12.343880
 110 C     6.0000    0    12.011    2.002637   -2.018568   11.566938
 111 H     1.0000    0     1.008    3.605749   -3.216389   11.594282
 112 H     1.0000    0     1.008    2.091832   -0.732685   13.095292
 113 H     1.0000    0     1.008    1.848360   -1.010871    9.814501
 114 O     8.0000    0    15.999    5.023270   11.858428    0.423204
 115 H     1.0000    0     1.008    4.919335   10.718111    1.842766
 116 C     6.0000    0    12.011    5.593004   10.530763   -1.998971
 117 H     1.0000    0     1.008    6.536298   11.787715   -3.259286
 118 H     1.0000    0     1.008    3.857800    9.884874   -2.975846
 119 H     1.0000    0     1.008    6.717372    8.852365   -1.600220

--------------------------------
INTERNAL COORDINATES (ANGSTROEM)
--------------------------------
 O      0   0   0     0.000000000000     0.00000000     0.00000000
 H      1   0   0     0.945608494939     0.00000000     0.00000000
 C      1   2   0     1.374922460177   106.64347386     0.00000000
 H      3   1   2     1.104066255304   105.60818242   236.28226204
 H      3   1   2     1.090662878574   111.62072535   113.35545870
 H      3   1   2     1.076325149432   113.07482887   352.68177203
 O      1   2   3     2.875597987811   101.99020730   153.94674383
 H      7   1   2     0.975032315875    51.20687493   226.47600299
 C      7   1   2     1.446929934828   147.96274661   299.07632047
 H      9   7   1     1.074296629195   110.65659654   171.70086133
 H      9   7   1     1.044205042604   109.40052475    44.60717284
 H      9   7   1     1.048422764728   108.38542741   282.63660221
 O      8   7   1     1.970048858024   148.94771171   237.03272385
 H     13   8   7     0.957592968333   124.62954980    80.56869653
 C     13   8   7     1.419902975066   128.05419504   273.98126660
 H     15  13   8     1.094340925215   113.25110829   310.61473681
 H     15  13   8     1.075126699743   110.76703189   191.37567970
 H     15  13   8     1.053679117141   107.70081904    71.00037012
 O      2   1   3     2.226101216769   151.98778414    62.07991741
 H     19   2   1     0.963619093937   160.08502584    99.42782273
 C     19   2   1     1.453747542148    81.25236962   231.32121900
 H     21  19   2     1.130532817082   111.06851029   317.92583994
 H     21  19   2     1.057274670131   109.63270484   189.97008071
 H     21  19   2     1.074310812102   104.50468859    75.45188063
 O     14  13   8     2.760845955391    99.72740463   327.34802374
 H     25  14  13     0.982632345488    51.65853974    41.01590646
 C     25  14  13     1.398697568526   137.96579759   330.32192338
 H     27  25  14     1.123641312074   109.16114856   248.45366685
 H     27  25  14     1.048961415115   110.53091551   128.17842650
 H     27  25  14     1.120544991912   109.09278171     8.23385902
 O     22  21  19     3.006186528827   108.18408663   135.00641942
 H     31  22  21     0.961495025260   104.71732235   319.97488074
 C     31  22  21     1.464188918309   128.30353225    76.19053552
 H     33  31  22     1.066840497216   109.75538599    65.64896086
 H     33  31  22     1.074528802452   112.26053000   307.64246222
 H     33  31  22     1.066817223146   107.89949456   186.36232600
 O     14  13   8     1.690765595344   161.32279359   152.35305998
 H     37  14  13     0.951245137964   113.63578769   201.64663173
 C     37  14  13     1.422813936044   133.73519116    42.08501419
 H     39  37  14     1.086073502945   107.80997837   307.51941234
 H     39  37  14     1.135186336907   104.59163916   195.33546306
 H     39  37  14     1.074605542234   111.94547572    70.43654342
 O     32  31  22     2.000022175677   156.61930105   173.64458184
 H     43  32  31     0.951746072490    94.70540904    38.85213203
 C     43  32  31     1.429282844961   121.64480134   284.50924040
 H     45  43  32     1.127054548591   110.22802833   270.19388238
 H     45  43  32     1.074184775027   106.06946618   147.40425099
 H     45  43  32     1.106787186455   103.95440267    30.28533687
 O     38  37  14     2.188954476205   158.34199500   154.77730961
 H     49  38  37     0.958982842704   132.98552763   192.88739279
 C     49  38  37     1.417167018703   109.39132827   328.96965523
 H     51  49  38     1.068342744535   107.08869747    46.58688409
 H     51  49  38     1.088454033067   110.06817491   289.42977268
 H     51  49  38     1.069159741760   112.27159512   167.96489506
 O     50  49  38     2.036228453342   147.25596924    67.75508872
 H     55  50  49     0.967254313456   133.12393041    95.19834145
 C     55  50  49     1.407035552394    97.01994633   330.97344270
 H     57  55  50     1.067562295559   109.48524650   333.96185029
 H     57  55  50     1.085594382124   107.85808748   209.95727505
 H     57  55  50     1.072785060672   111.31019238    95.53928853
 O     20  19   2     3.591870201288   104.44840114     9.47127046
 H     61  20  19     0.967541989993   136.80288966   112.17956853
 C     61  20  19     1.433624893792    75.56084413    10.42073085
 H     63  61  20     1.110901200062   113.27167581   253.26670876
 H     63  61  20     1.123376553699   109.29141094   127.67151635
 H     63  61  20     1.049857700310   108.85830980    10.04057450
 O     64  63  61     2.790541929339   110.34714842    22.56471975
 H     67  64  63     0.997773300956    57.44211841   344.84585235
 C     67  64  63     1.443705386047   131.28229799    71.87663020
 H     69  67  64     1.075431901563   108.98108587   107.91316057
 H     69  67  64     1.021146825584   111.69868735   347.15199182
 H     69  67  64     1.078206956247   112.54216888   221.07773216
 O     36  33  31     2.310842966495   125.38456737   318.83804465
 H     73  36  33     0.987300105287   106.90614370   357.73226246
 C     73  36  33     1.405106492263   115.96093681   237.93945864
 H     75  73  36     1.079390555175   108.19890883   352.62180067
 H     75  73  36     1.036938587044   113.20642113   230.20716294
 H     75  73  36     1.103981118543   109.79470842   109.68932707
 O     20  19   2     2.382534779809   159.32015505   303.10551010
 H     79  20  19     0.981031088447    82.47557657   307.49582193
 C     79  20  19     1.373144271845   152.42752437    69.47005144
 H     81  79  20     1.084585060011   110.21822391    54.94708337
 H     81  79  20     1.090511115533   108.88338246   301.55392264
 H     81  79  20     1.143548410694   114.95063049   179.55773961
 O     11   9   7     3.227611493675   132.54438312   245.76763018
 H     85  11   9     0.986473374096   171.06968295   251.60425631
 C     85  11   9     1.411675070191    83.94563635    57.45636232
 H     87  85  11     1.111735959120   108.64295178    13.91681886
 H     87  85  11     1.094748648138   113.63579110   257.66030219
 H     87  85  11     1.081630774618   109.99637042   134.73509767
 O     23  21  19     2.689857507118   130.77766663   297.46549593
 H     91  23  21     0.944831521172   104.96427491   315.50165674
 C     91  23  21     1.452454120756   120.47643132    80.97548216
 H     93  91  23     1.102600967077   108.98635987    51.27317813
 H     93  91  23     1.099277723644   112.93999109   288.72841083
 H     93  91  23     1.103898130445   108.81188631   168.46515588
 O     16  15  13     2.450882428045   135.41297768   119.36497579
 H     97  16  15     0.953418928593    83.18489285    41.07760004
 C     97  16  15     1.450194958962   160.43269685   164.93474301
 H     99  97  16     1.067525798564   110.89312475    73.61209079
 H     99  97  16     1.096897956831   114.05835459   311.65749405
 H     99  97  16     1.132598288803   113.32776423   191.16919903
 O     10   9   7     2.804178057649   122.77556592    79.66606907
 H    103  10   9     0.943964290056   114.53294487   121.64460994
 C    103  10   9     1.398896147039   118.62727282   353.33854259
 H    105 103  10     1.129591303658   106.68952334   312.65205496
 H    105 103  10     1.051660271476   108.61375806   188.12374190
 H    105 103  10     1.057989935680   109.32245349    66.61365733
 O     92  91  23     4.035203938452   149.27002193    70.26497921
 H    109  92  91     0.945392239285    94.59750287    44.06545588
 C    109  92  91     1.394534537686   140.95876075   277.82995010
 H    111 109  92     1.059080577388   109.95613280   283.82587004
 H    111 109  92     1.057999321597   107.95906605   164.05439054
 H    111 109  92     1.072846062863   107.14024410    45.43943125
 O     42  39  37     3.559589810568   113.29401386    52.11619664
 H    115  42  39     0.965118751709    63.30267933    22.56594414
 C    115  42  39     1.492450844283    60.87827471   241.82533993
 H    117 115  42     1.066016339603   109.76556658   244.83343021
 H    117 115  42     1.107787750700   112.24477261   126.25152999
 H    117 115  42     1.089671633613   109.12880742     7.88045225

---------------------------
INTERNAL COORDINATES (A.U.)
---------------------------
 O      0   0   0     0.000000000000     0.00000000     0.00000000
 H      1   0   0     1.786941085343     0.00000000     0.00000000
 C      1   2   0     2.598226905112   106.64347386     0.00000000
 H      3   1   2     2.086382856228   105.60818242   236.28226204
 H      3   1   2     2.061054144940   111.62072535   113.35545870
 H      3   1   2     2.033959763479   113.07482887   352.68177203
 O      1   2   3     5.434092668217   101.99020730   153.94674383
 H      7   1   2     1.842544048726    51.20687493   226.47600299
 C      7   1   2     2.734301311797   147.96274661   299.07632047
 H      9   7   1     2.030126415774   110.65659654   171.70086133
 H      9   7   1     1.973261558181   109.40052475    44.60717284
 H      9   7   1     1.981231897905   108.38542741   282.63660221
 O      8   7   1     3.722852812109   148.94771171   237.03272385
 H     13   8   7     1.809588457917   124.62954980    80.56869653
 C     13   8   7     2.683227759614   128.05419504   273.98126660
 H     15  13   8     2.068004645798   113.25110829   310.61473681
 H     15  13   8     2.031695021781   110.76703189   191.37567970
 H     15  13   8     1.991164964429   107.70081904    71.00037012
 O      2   1   3     4.206721646082   151.98778414    62.07991741
 H     19   2   1     1.820976184958   160.08502584    99.42782273
 C     19   2   1     2.747184722520    81.25236962   231.32121900
 H     21  19   2     2.136397409696   111.06851029   317.92583994
 H     21  19   2     1.997959574879   109.63270484   189.97008071
 H     21  19   2     2.030153217584   104.50468859    75.45188063
 O     14  13   8     5.217242753634    99.72740463   327.34802374
 H     25  14  13     1.856906023306    51.65853974    41.01590646
 C     25  14  13     2.643155348695   137.96579759   330.32192338
 H     27  25  14     2.123374352580   109.16114856   248.45366685
 H     27  25  14     1.982249799618   110.53091551   128.17842650
 H     27  25  14     2.117523155451   109.09278171     8.23385902
 O     22  21  19     5.680869246966   108.18408663   135.00641942
 H     31  22  21     1.816962276869   104.71732235   319.97488074
 C     31  22  21     2.766916063927   128.30353225    76.19053552
 H     33  31  22     2.016036368315   109.75538599    65.64896086
 H     33  31  22     2.030565159646   112.26053000   307.64246222
 H     33  31  22     2.015992386695   107.89949456   186.36232600
 O     14  13   8     3.195083931857   161.32279359   152.35305998
 H     37  14  13     1.797592796976   113.63578769   201.64663173
 C     37  14  13     2.688728678649   133.73519116    42.08501419
 H     39  37  14     2.052381481875   107.80997837   307.51941234
 H     39  37  14     2.145191287723   104.59163916   195.33546306
 H     39  37  14     2.030710176816   111.94547572    70.43654342
 O     32  31  22     3.779494173799   156.61930105   173.64458184
 H     43  32  31     1.798539426041    94.70540904    38.85213203
 C     43  32  31     2.700953144888   121.64480134   284.50924040
 H     45  43  32     2.129824434828   110.22802833   270.19388238
 H     45  43  32     2.029915042029   106.06946618   147.40425099
 H     45  43  32     2.091524670932   103.95440267    30.28533687
 O     38  37  14     4.136524479649   158.34199500   154.77730961
 H     49  38  37     1.812214939839   132.98552763   192.88739279
 C     49  38  37     2.678057551375   109.39132827   328.96965523
 H     51  49  38     2.018875204332   107.08869747    46.58688409
 H     51  49  38     2.056880031859   110.06817491   289.42977268
 H     51  49  38     2.020419105340   112.27159512   167.96489506
 O     50  49  38     3.847914122915   147.25596924    67.75508872
 H     55  50  49     1.827845754287   133.12393041    95.19834145
 C     55  50  49     2.658911854715    97.01994633   330.97344270
 H     57  55  50     2.017400369508   109.48524650   333.96185029
 H     57  55  50     2.051476074739   107.85808748   209.95727505
 H     57  55  50     2.027269965231   111.31019238    95.53928853
 O     20  19   2     6.787650989027   104.44840114     9.47127046
 H     61  20  19     1.828389384156   136.80288966   112.17956853
 C     61  20  19     2.709158428039    75.56084413    10.42073085
 H     63  61  20     2.099299029962   113.27167581   253.26670876
 H     63  61  20     2.122874031759   109.29141094   127.67151635
 H     63  61  20     1.983943533174   108.85830980    10.04057450
 O     64  63  61     5.273360011675   110.34714842    22.56471975
 H     67  64  63     1.885518282545    57.44211841   344.84585235
 C     67  64  63     2.728207797695   131.28229799    71.87663020
 H     69  67  64     2.032271769637   108.98108587   107.91316057
 H     69  67  64     1.929687842877   111.69868735   347.15199182
 H     69  67  64     2.037515862996   112.54216888   221.07773216
 O     36  33  31     4.366860345174   125.38456737   318.83804465
 H     73  36  33     1.865726810984   106.90614370   357.73226246
 C     73  36  33     2.655266459372   115.96093681   237.93945864
 H     75  73  36     2.039752540821   108.19890883   352.62180067
 H     75  73  36     1.959529947208   113.20642113   230.20716294
 H     75  73  36     2.086221971067   109.79470842   109.68932707
 O     20  19   2     4.502338238382   159.32015505   303.10551010
 H     79  20  19     1.853880086028    82.47557657   307.49582193
 C     79  20  19     2.594866616149   152.42752437    69.47005144
 H     81  79  20     2.049568732364   110.21822391    54.94708337
 H     81  79  20     2.060767354353   108.88338246   301.55392264
 H     81  79  20     2.160993317092   114.95063049   179.55773961
 O     11   9   7     6.099301789741   132.54438312   245.76763018
 H     85  11   9     1.864164515446   171.06968295   251.60425631
 C     85  11   9     2.667679272746    83.94563635    57.45636232
 H     87  85  11     2.100876495969   108.64295178    13.91681886
 H     87  85  11     2.068775130461   113.63579110   257.66030219
 H     87  85  11     2.043985942048   109.99637042   134.73509767
 O     23  21  19     5.083094027725   130.77766663   297.46549593
 H     91  23  21     1.785472817711   104.96427491   315.50165674
 C     91  23  21     2.744740510314   120.47643132    80.97548216
 H     93  91  23     2.083613862773   108.98635987    51.27317813
 H     93  91  23     2.077333842808   112.93999109   288.72841083
 H     93  91  23     2.086065146289   108.81188631   168.46515588
 O     16  15  13     4.631496575445   135.41297768   119.36497579
 H     97  16  15     1.801700665938    83.18489285    41.07760004
 C     97  16  15     2.740471313232   160.43269685   164.93474301
 H     99  97  16     2.017331400182   110.89312475    73.61209079
 H     99  97  16     2.072836735268   114.05835459   311.65749405
 H     99  97  16     2.140300585586   113.32776423   191.16919903
 O     10   9   7     5.299128559708   122.77556592    79.66606907
 H    103  10   9     1.783833988406   114.53294487   121.64460994
 C    103  10   9     2.643530607701   118.62727282   353.33854259
 H    105 103  10     2.134618207173   106.68952334   312.65205496
 H    105 103  10     1.987349899014   108.61375806   188.12374190
 H    105 103  10     1.999311230880   109.32245349    66.61365733
 O     92  91  23     7.625430338195   149.27002193    70.26497921
 H    109  92  91     1.786532421383    94.59750287    44.06545588
 C    109  92  91     2.635288360522   140.95876075   277.82995010
 H    111 109  92     2.001372245018   109.95613280   283.82587004
 H    111 109  92     1.999328967693   107.95906605   164.05439054
 H    111 109  92     2.027385242666   107.14024410    45.43943125
 O     42  39  37     6.726649891070   113.29401386    52.11619664
 H    115  42  39     1.823810127442    63.30267933    22.56594414
 C    115  42  39     2.820323364034    60.87827471   241.82533993
 H    117 115  42     2.014478936134   109.76556658   244.83343021
 H    117 115  42     2.093415463335   112.24477261   126.25152999
 H    117 115  42     2.059180963430   109.12880742     7.88045225

---------------------
BASIS SET INFORMATION
---------------------
There are 3 groups of distinct atoms

 Group   1 Type O   : 11s6p2d1f contracted to 5s3p2d1f pattern {62111/411/11/1}
 Group   2 Type H   : 5s1p contracted to 3s1p pattern {311/1}
 Group   3 Type C   : 11s6p2d1f contracted to 5s3p2d1f pattern {62111/411/11/1}

Atom   0O    basis set group =>   1
Atom   1H    basis set group =>   2
Atom   2C    basis set group =>   3
Atom   3H    basis set group =>   2
Atom   4H    basis set group =>   2
Atom   5H    basis set group =>   2
Atom   6O    basis set group =>   1
Atom   7H    basis set group =>   2
Atom   8C    basis set group =>   3
Atom   9H    basis set group =>   2
Atom  10H    basis set group =>   2
Atom  11H    basis set group =>   2
Atom  12O    basis set group =>   1
Atom  13H    basis set group =>   2
Atom  14C    basis set group =>   3
Atom  15H    basis set group =>   2
Atom  16H    basis set group =>   2
Atom  17H    basis set group =>   2
Atom  18O    basis set group =>   1
Atom  19H    basis set group =>   2
Atom  20C    basis set group =>   3
Atom  21H    basis set group =>   2
Atom  22H    basis set group =>   2
Atom  23H    basis set group =>   2
Atom  24O    basis set group =>   1
Atom  25H    basis set group =>   2
Atom  26C    basis set group =>   3
Atom  27H    basis set group =>   2
Atom  28H    basis set group =>   2
Atom  29H    basis set group =>   2
Atom  30O    basis set group =>   1
Atom  31H    basis set group =>   2
Atom  32C    basis set group =>   3
Atom  33H    basis set group =>   2
Atom  34H    basis set group =>   2
Atom  35H    basis set group =>   2
Atom  36O    basis set group =>   1
Atom  37H    basis set group =>   2
Atom  38C    basis set group =>   3
Atom  39H    basis set group =>   2
Atom  40H    basis set group =>   2
Atom  41H    basis set group =>   2
Atom  42O    basis set group =>   1
Atom  43H    basis set group =>   2
Atom  44C    basis set group =>   3
Atom  45H    basis set group =>   2
Atom  46H    basis set group =>   2
Atom  47H    basis set group =>   2
Atom  48O    basis set group =>   1
Atom  49H    basis set group =>   2
Atom  50C    basis set group =>   3
Atom  51H    basis set group =>   2
Atom  52H    basis set group =>   2
Atom  53H    basis set group =>   2
Atom  54O    basis set group =>   1
Atom  55H    basis set group =>   2
Atom  56C    basis set group =>   3
Atom  57H    basis set group =>   2
Atom  58H    basis set group =>   2
Atom  59H    basis set group =>   2
Atom  60O    basis set group =>   1
Atom  61H    basis set group =>   2
Atom  62C    basis set group =>   3
Atom  63H    basis set group =>   2
Atom  64H    basis set group =>   2
Atom  65H    basis set group =>   2
Atom  66O    basis set group =>   1
Atom  67H    basis set group =>   2
Atom  68C    basis set group =>   3
Atom  69H    basis set group =>   2
Atom  70H    basis set group =>   2
Atom  71H    basis set group =>   2
Atom  72O    basis set group =>   1
Atom  73H    basis set group =>   2
Atom  74C    basis set group =>   3
Atom  75H    basis set group =>   2
Atom  76H    basis set group =>   2
Atom  77H    basis set group =>   2
Atom  78O    basis set group =>   1
Atom  79H    basis set group =>   2
Atom  80C    basis set group =>   3
Atom  81H    basis set group =>   2
Atom  82H    basis set group =>   2
Atom  83H    basis set group =>   2
Atom  84O    basis set group =>   1
Atom  85H    basis set group =>   2
Atom  86C    basis set group =>   3
Atom  87H    basis set group =>   2
Atom  88H    basis set group =>   2
Atom  89H    basis set group =>   2
Atom  90O    basis set group =>   1
Atom  91H    basis set group =>   2
Atom  92C    basis set group =>   3
Atom  93H    basis set group =>   2
Atom  94H    basis set group =>   2
Atom  95H    basis set group =>   2
Atom  96O    basis set group =>   1
Atom  97H    basis set group =>   2
Atom  98C    basis set group =>   3
Atom  99H    basis set group =>   2
Atom 100H    basis set group =>   2
Atom 101H    basis set group =>   2
Atom 102O    basis set group =>   1
Atom 103H    basis set group =>   2
Atom 104C    basis set group =>   3
Atom 105H    basis set group =>   2
Atom 106H    basis set group =>   2
Atom 107H    basis set group =>   2
Atom 108O    basis set group =>   1
Atom 109H    basis set group =>   2
Atom 110C    basis set group =>   3
Atom 111H    basis set group =>   2
Atom 112H    basis set group =>   2
Atom 113H    basis set group =>   2
Atom 114O    basis set group =>   1
Atom 115H    basis set group =>   2
Atom 116C    basis set group =>   3
Atom 117H    basis set group =>   2
Atom 118H    basis set group =>   2
Atom 119H    basis set group =>   2
---------------------------------
AUXILIARY/C BASIS SET INFORMATION
---------------------------------
There are 3 groups of distinct atoms

 Group   1 Type O   : 8s6p5d3f1g contracted to 8s6p4d3f1g pattern {11111111/111111/2111/111/1}
 Group   2 Type H   : 4s3p2d contracted to 4s2p1d pattern {1111/21/2}
 Group   3 Type C   : 8s6p5d3f1g contracted to 8s6p4d3f1g pattern {11111111/111111/2111/111/1}

Atom   0O    basis set group =>   1
Atom   1H    basis set group =>   2
Atom   2C    basis set group =>   3
Atom   3H    basis set group =>   2
Atom   4H    basis set group =>   2
Atom   5H    basis set group =>   2
Atom   6O    basis set group =>   1
Atom   7H    basis set group =>   2
Atom   8C    basis set group =>   3
Atom   9H    basis set group =>   2
Atom  10H    basis set group =>   2
Atom  11H    basis set group =>   2
Atom  12O    basis set group =>   1
Atom  13H    basis set group =>   2
Atom  14C    basis set group =>   3
Atom  15H    basis set group =>   2
Atom  16H    basis set group =>   2
Atom  17H    basis set group =>   2
Atom  18O    basis set group =>   1
Atom  19H    basis set group =>   2
Atom  20C    basis set group =>   3
Atom  21H    basis set group =>   2
Atom  22H    basis set group =>   2
Atom  23H    basis set group =>   2
Atom  24O    basis set group =>   1
Atom  25H    basis set group =>   2
Atom  26C    basis set group =>   3
Atom  27H    basis set group =>   2
Atom  28H    basis set group =>   2
Atom  29H    basis set group =>   2
Atom  30O    basis set group =>   1
Atom  31H    basis set group =>   2
Atom  32C    basis set group =>   3
Atom  33H    basis set group =>   2
Atom  34H    basis set group =>   2
Atom  35H    basis set group =>   2
Atom  36O    basis set group =>   1
Atom  37H    basis set group =>   2
Atom  38C    basis set group =>   3
Atom  39H    basis set group =>   2
Atom  40H    basis set group =>   2
Atom  41H    basis set group =>   2
Atom  42O    basis set group =>   1
Atom  43H    basis set group =>   2
Atom  44C    basis set group =>   3
Atom  45H    basis set group =>   2
Atom  46H    basis set group =>   2
Atom  47H    basis set group =>   2
Atom  48O    basis set group =>   1
Atom  49H    basis set group =>   2
Atom  50C    basis set group =>   3
Atom  51H    basis set group =>   2
Atom  52H    basis set group =>   2
Atom  53H    basis set group =>   2
Atom  54O    basis set group =>   1
Atom  55H    basis set group =>   2
Atom  56C    basis set group =>   3
Atom  57H    basis set group =>   2
Atom  58H    basis set group =>   2
Atom  59H    basis set group =>   2
Atom  60O    basis set group =>   1
Atom  61H    basis set group =>   2
Atom  62C    basis set group =>   3
Atom  63H    basis set group =>   2
Atom  64H    basis set group =>   2
Atom  65H    basis set group =>   2
Atom  66O    basis set group =>   1
Atom  67H    basis set group =>   2
Atom  68C    basis set group =>   3
Atom  69H    basis set group =>   2
Atom  70H    basis set group =>   2
Atom  71H    basis set group =>   2
Atom  72O    basis set group =>   1
Atom  73H    basis set group =>   2
Atom  74C    basis set group =>   3
Atom  75H    basis set group =>   2
Atom  76H    basis set group =>   2
Atom  77H    basis set group =>   2
Atom  78O    basis set group =>   1
Atom  79H    basis set group =>   2
Atom  80C    basis set group =>   3
Atom  81H    basis set group =>   2
Atom  82H    basis set group =>   2
Atom  83H    basis set group =>   2
Atom  84O    basis set group =>   1
Atom  85H    basis set group =>   2
Atom  86C    basis set group =>   3
Atom  87H    basis set group =>   2
Atom  88H    basis set group =>   2
Atom  89H    basis set group =>   2
Atom  90O    basis set group =>   1
Atom  91H    basis set group =>   2
Atom  92C    basis set group =>   3
Atom  93H    basis set group =>   2
Atom  94H    basis set group =>   2
Atom  95H    basis set group =>   2
Atom  96O    basis set group =>   1
Atom  97H    basis set group =>   2
Atom  98C    basis set group =>   3
Atom  99H    basis set group =>   2
Atom 100H    basis set group =>   2
Atom 101H    basis set group =>   2
Atom 102O    basis set group =>   1
Atom 103H    basis set group =>   2
Atom 104C    basis set group =>   3
Atom 105H    basis set group =>   2
Atom 106H    basis set group =>   2
Atom 107H    basis set group =>   2
Atom 108O    basis set group =>   1
Atom 109H    basis set group =>   2
Atom 110C    basis set group =>   3
Atom 111H    basis set group =>   2
Atom 112H    basis set group =>   2
Atom 113H    basis set group =>   2
Atom 114O    basis set group =>   1
Atom 115H    basis set group =>   2
Atom 116C    basis set group =>   3
Atom 117H    basis set group =>   2
Atom 118H    basis set group =>   2
Atom 119H    basis set group =>   2


           ************************************************************
           *        Program running with 24 parallel MPI-processes    *
           *              working on a common directory               *
           ************************************************************
------------------------------------------------------------------------------
                           ORCA GTO INTEGRAL CALCULATION
------------------------------------------------------------------------------

                         BASIS SET STATISTICS AND STARTUP INFO

 # of primitive gaussian shells          ... 1280
 # of primitive gaussian functions       ... 2480
 # of contracted shells                  ...  760
 # of contracted basis functions         ... 1720
 Highest angular momentum                ...    3
 Maximum contraction depth               ...    6
 Integral package used                   ... LIBINT
 Integral threshhold            Thresh   ...  2.500e-11
 Primitive cut-off              TCut     ...  2.500e-12


------------------------------ INTEGRAL EVALUATION ----------------------------


 * One electron integrals 
 Pre-screening matrix                    ... done
 Shell pair data                         ... done (   0.042 sec)



           ************************************************************
           *        Program running with 24 parallel MPI-processes    *
           *              working on a common directory               *
           ************************************************************
-------------------------------------------------------------------------------
                                 ORCA SCF
-------------------------------------------------------------------------------

------------
SCF SETTINGS
------------
Hamiltonian:
 Ab initio Hamiltonian  Method          .... Hartree-Fock(GTOs)


General Settings:
 Integral files         IntName         .... input
 Hartree-Fock type      HFTyp           .... RHF
 Total Charge           Charge          ....    0
 Multiplicity           Mult            ....    1
 Number of Electrons    NEL             ....  360
 Basis Dimension        Dim             .... 1720
 Nuclear Repulsion      ENuc            ....   5835.6584320541 Eh

Convergence Acceleration:
 DIIS                   CNVDIIS         .... on
   Start iteration      DIISMaxIt       ....    12
   Startup error        DIISStart       ....  0.200000
   # of expansion vecs  DIISMaxEq       ....     5
   Bias factor          DIISBfac        ....   1.050
   Max. coefficient     DIISMaxC        ....  10.000
 Newton-Raphson         CNVNR           .... off
 SOSCF                  CNVSOSCF        .... on
   Start iteration      SOSCFMaxIt      ....   150
   Startup grad/error   SOSCFStart      ....  0.003300
 Level Shifting         CNVShift        .... on
   Level shift para.    LevelShift      ....    0.2500
   Turn off err/grad.   ShiftErr        ....    0.0010
 Zerner damping         CNVZerner       .... off
 Static damping         CNVDamp         .... on
   Fraction old density DampFac         ....    0.7000
   Max. Damping (<1)    DampMax         ....    0.9800
   Min. Damping (>=0)   DampMin         ....    0.0000
   Turn off err/grad.   DampErr         ....    0.1000
 Fernandez-Rico         CNVRico         .... off

SCF Procedure:
 Maximum # iterations   MaxIter         ....   125
 SCF integral mode      SCFMode         .... Direct
   Integral package                     .... LIBINT
 Reset frequency        DirectResetFreq ....    20
 Integral Threshold     Thresh          ....  2.500e-11 Eh
 Primitive CutOff       TCut            ....  2.500e-12 Eh

Convergence Tolerance:
 Convergence Check Mode ConvCheckMode   .... Total+1el-Energy
 Convergence forced     ConvForced      .... 1
 Energy Change          TolE            ....  1.000e-08 Eh
 1-El. energy change                    ....  1.000e-05 Eh
 Orbital Gradient       TolG            ....  1.000e-05
 Orbital Rotation angle TolX            ....  1.000e-05
 DIIS Error             TolErr          ....  5.000e-07


Diagonalization of the overlap matrix:
Smallest eigenvalue                        ... 3.718e-04
Time for diagonalization                   ...    0.450 sec
Threshold for overlap eigenvalues          ... 1.000e-08
Number of eigenvalues below threshold      ... 0
Time for construction of square roots      ...    0.329 sec
Total time needed                          ...    0.789 sec

-------------------
DFT GRID GENERATION
-------------------

General Integration Accuracy     IntAcc      ...  4.340
Radial Grid Type                 RadialGrid  ... Gauss-Chebyshev
Angular Grid (max. acc.)         AngularGrid ... Lebedev-110
Angular grid pruning method      GridPruning ... 3 (G Style)
Weight generation scheme         WeightScheme... Becke
Basis function cutoff            BFCut       ...    1.0000e-11
Integration weight cutoff        WCut        ...    1.0000e-14
Grids for H and He will be reduced by one unit

# of grid points (after initial pruning)     ... 130960 (   0.0 sec)
# of grid points (after weights+screening)   ... 114743 (   0.4 sec)
nearest neighbour list constructed           ...    0.0 sec
Grid point re-assignment to atoms done       ...    0.0 sec
Grid point division into batches done        ...    0.1 sec
Reduced shell lists constructed in    0.3 sec

Total number of grid points                  ...   114743
Total number of batches                      ...     1850
Average number of points per batch           ...       62
Average number of grid points per atom       ...      956
Average number of shells per batch           ...   272.51 (35.86%)
Average number of basis functions per batch  ...   523.04 (30.41%)
Average number of large shells per batch     ...   144.84 (53.15%)
Average number of large basis fcns per batch ...   275.22 (52.62%)
Maximum spatial batch extension              ...   6.86,  4.30,  5.52 au
Average spatial batch extension              ...   0.08,  0.08,  0.09 au

Time for grid setup =    0.702 sec

------------------------------
INITIAL GUESS: MODEL POTENTIAL
------------------------------
Loading Hartree-Fock densities                     ... done
Calculating cut-offs                               ... done
Setting up the integral package                    ... done
Initializing the effective Hamiltonian             ... done
Starting the Coulomb interaction                   ... done (   0.7 sec)
Reading the grid                                   ... done
Mapping shells                                     ... done
Starting the XC term evaluation                    ... done (   0.2 sec)
Transforming the Hamiltonian                       ... done (   0.2 sec)
Diagonalizing the Hamiltonian                      ... done (   0.4 sec)
Back transforming the eigenvectors                 ... done (   0.1 sec)
Now organizing SCF variables                       ... done
                      ------------------
                      INITIAL GUESS DONE (   2.4 sec)
                      ------------------
--------------
SCF ITERATIONS
--------------
ITER       Energy         Delta-E        Max-DP      RMS-DP      [F,P]     Damp
               ***  Starting incremental Fock matrix formation  ***
  0  -2299.4911044532   0.000000000000 0.03754657  0.00031344  0.2901139 0.7000
  1  -2300.3149009345  -0.823796481304 0.02546239  0.00023628  0.2181734 0.7000
                               ***Turning on DIIS***
  2  -2300.7959401882  -0.481039253747 0.01517461  0.00014763  0.1628023 0.7000
  3  -2306.9329570347  -6.137016846492 0.00843834  0.00008560  0.1199705 0.7000
  4  -2305.8903207072   1.042636327526 0.01818408  0.00021028  0.0845615 0.0000
  5  -2301.9763326375   3.913988069678 0.00249606  0.00002934  0.0062921 0.0000
                      *** Initiating the SOSCF procedure ***
                           *** Shutting down DIIS ***
                      *** Re-Reading the Fockian *** 
                      *** Removing any level shift *** 
ITER      Energy       Delta-E        Grad      Rot      Max-DP    RMS-DP
  6  -2301.81842362   0.1579090219  0.000337  0.000337  0.001325  0.000015
               *** Restarting incremental Fock matrix formation ***
  7  -2301.78179919   0.0366244269  0.000200  0.000247  0.000637  0.000008
  8  -2301.78183988  -0.0000406895  0.000080  0.000149  0.000496  0.000006
  9  -2301.78184924  -0.0000093616  0.000014  0.000016  0.000099  0.000001
 10  -2301.78184957  -0.0000003350  0.000005  0.000011  0.000022  0.000000
                  ***Gradient check signals convergence***
              ***Rediagonalizing the Fockian in SOSCF/NRSCF***

               *****************************************************
               *                     SUCCESS                       *
               *           SCF CONVERGED AFTER  11 CYCLES          *
               *****************************************************


----------------
TOTAL SCF ENERGY
----------------

Total Energy       :        -2301.78184961 Eh          -62634.66841 eV

Components:
Nuclear Repulsion  :         5835.65843205 Eh          158796.33899 eV
Electronic Energy  :        -8137.44028166 Eh         -221431.00740 eV
One Electron Energy:       -14801.73122001 Eh         -402775.58321 eV
Two Electron Energy:         6664.29093835 Eh          181344.57581 eV

Virial components:
Potential Energy   :        -4602.00997713 Eh         -125227.05790 eV
Kinetic Energy     :         2300.22812752 Eh           62592.38949 eV
Virial Ratio       :            2.00067546


---------------
SCF CONVERGENCE
---------------

  Last Energy change         ...   -3.6100e-08  Tolerance :   1.0000e-08
  Last MAX-Density change    ...    5.6549e-06  Tolerance :   1.0000e-07
  Last RMS-Density change    ...    5.6962e-08  Tolerance :   5.0000e-09
  Last Orbital Gradient      ...    1.6452e-06  Tolerance :   1.0000e-05
  Last Orbital Rotation      ...    4.6834e-06  Tolerance :   1.0000e-05

             **** THE GBW FILE WAS UPDATED (input.gbw) ****
             **** DENSITY FILE WAS UPDATED (input.scfp) ****
             **** ENERGY FILE WAS UPDATED (input.en.tmp) ****
             **** THE GBW FILE WAS UPDATED (input.gbw) ****
             **** DENSITY FILE WAS UPDATED (input.scfp) ****
----------------
ORBITAL ENERGIES
----------------

  NO   OCC          E(Eh)            E(eV) 
   0   2.0000     -20.571933      -559.7908 
   1   2.0000     -20.565573      -559.6177 
   2   2.0000     -20.559953      -559.4648 
   3   2.0000     -20.559826      -559.4613 
   4   2.0000     -20.559064      -559.4406 
   5   2.0000     -20.558357      -559.4213 
   6   2.0000     -20.551718      -559.2407 
   7   2.0000     -20.550054      -559.1954 
   8   2.0000     -20.549193      -559.1720 
   9   2.0000     -20.546769      -559.1060 
  10   2.0000     -20.545633      -559.0751 
  11   2.0000     -20.535522      -558.7999 
  12   2.0000     -20.530501      -558.6633 
  13   2.0000     -20.526050      -558.5422 
  14   2.0000     -20.525594      -558.5298 
  15   2.0000     -20.517150      -558.3000 
  16   2.0000     -20.507760      -558.0445 
  17   2.0000     -20.507272      -558.0312 
  18   2.0000     -20.493692      -557.6617 
  19   2.0000     -20.483587      -557.3867 
  20   2.0000     -11.287090      -307.1373 
  21   2.0000     -11.283947      -307.0518 
  22   2.0000     -11.274292      -306.7891 
  23   2.0000     -11.274260      -306.7882 
  24   2.0000     -11.271211      -306.7052 
  25   2.0000     -11.268289      -306.6257 
  26   2.0000     -11.266112      -306.5665 
  27   2.0000     -11.265244      -306.5429 
  28   2.0000     -11.252190      -306.1877 
  29   2.0000     -11.248338      -306.0828 
  30   2.0000     -11.246960      -306.0453 
  31   2.0000     -11.244341      -305.9741 
  32   2.0000     -11.244238      -305.9713 
  33   2.0000     -11.243765      -305.9584 
  34   2.0000     -11.241007      -305.8833 
  35   2.0000     -11.240675      -305.8743 
  36   2.0000     -11.237165      -305.7788 
  37   2.0000     -11.224064      -305.4223 
  38   2.0000     -11.208592      -305.0013 
  39   2.0000     -11.206608      -304.9473 
  40   2.0000      -1.377660       -37.4880 
  41   2.0000      -1.376615       -37.4596 
  42   2.0000      -1.367660       -37.2159 
  43   2.0000      -1.367522       -37.2122 
  44   2.0000      -1.362973       -37.0884 
  45   2.0000      -1.362771       -37.0829 
  46   2.0000      -1.361190       -37.0399 
  47   2.0000      -1.355329       -36.8804 
  48   2.0000      -1.353335       -36.8261 
  49   2.0000      -1.344902       -36.5966 
  50   2.0000      -1.343093       -36.5474 
  51   2.0000      -1.340515       -36.4773 
  52   2.0000      -1.335620       -36.3441 
  53   2.0000      -1.322364       -35.9833 
  54   2.0000      -1.320229       -35.9253 
  55   2.0000      -1.317634       -35.8547 
  56   2.0000      -1.309131       -35.6233 
  57   2.0000      -1.299225       -35.3537 
  58   2.0000      -1.292836       -35.1798 
  59   2.0000      -1.276870       -34.7454 
  60   2.0000      -0.941919       -25.6309 
  61   2.0000      -0.939572       -25.5671 
  62   2.0000      -0.934718       -25.4350 
  63   2.0000      -0.931749       -25.3542 
  64   2.0000      -0.929979       -25.3060 
  65   2.0000      -0.927631       -25.2421 
  66   2.0000      -0.925237       -25.1770 
  67   2.0000      -0.922474       -25.1018 
  68   2.0000      -0.919796       -25.0289 
  69   2.0000      -0.916571       -24.9412 
  70   2.0000      -0.914919       -24.8962 
  71   2.0000      -0.911153       -24.7937 
  72   2.0000      -0.904198       -24.6045 
  73   2.0000      -0.903711       -24.5912 
  74   2.0000      -0.902619       -24.5615 
  75   2.0000      -0.898675       -24.4542 
  76   2.0000      -0.895905       -24.3788 
  77   2.0000      -0.886673       -24.1276 
  78   2.0000      -0.882505       -24.0142 
  79   2.0000      -0.859323       -23.3834 
  80   2.0000      -0.716557       -19.4985 
  81   2.0000      -0.708564       -19.2810 
  82   2.0000      -0.702762       -19.1231 
  83   2.0000      -0.701229       -19.0814 
  84   2.0000      -0.699931       -19.0461 
  85   2.0000      -0.698828       -19.0161 
  86   2.0000      -0.694100       -18.8874 
  87   2.0000      -0.685593       -18.6559 
  88   2.0000      -0.685215       -18.6456 
  89   2.0000      -0.684528       -18.6270 
  90   2.0000      -0.682207       -18.5638 
  91   2.0000      -0.678416       -18.4606 
  92   2.0000      -0.674748       -18.3608 
  93   2.0000      -0.669856       -18.2277 
  94   2.0000      -0.665744       -18.1158 
  95   2.0000      -0.654966       -17.8225 
  96   2.0000      -0.652561       -17.7571 
  97   2.0000      -0.645874       -17.5751 
  98   2.0000      -0.642948       -17.4955 
  99   2.0000      -0.640546       -17.4301 
 100   2.0000      -0.636796       -17.3281 
 101   2.0000      -0.631336       -17.1795 
 102   2.0000      -0.627540       -17.0762 
 103   2.0000      -0.627379       -17.0719 
 104   2.0000      -0.626910       -17.0591 
 105   2.0000      -0.625691       -17.0259 
 106   2.0000      -0.624857       -17.0032 
 107   2.0000      -0.621873       -16.9220 
 108   2.0000      -0.616713       -16.7816 
 109   2.0000      -0.616405       -16.7732 
 110   2.0000      -0.615895       -16.7593 
 111   2.0000      -0.614011       -16.7081 
 112   2.0000      -0.612880       -16.6773 
 113   2.0000      -0.607609       -16.5339 
 114   2.0000      -0.605764       -16.4837 
 115   2.0000      -0.604476       -16.4486 
 116   2.0000      -0.601642       -16.3715 
 117   2.0000      -0.601008       -16.3543 
 118   2.0000      -0.599527       -16.3140 
 119   2.0000      -0.598125       -16.2758 
 120   2.0000      -0.595554       -16.2059 
 121   2.0000      -0.589734       -16.0475 
 122   2.0000      -0.589578       -16.0432 
 123   2.0000      -0.588858       -16.0236 
 124   2.0000      -0.585605       -15.9351 
 125   2.0000      -0.584779       -15.9126 
 126   2.0000      -0.584377       -15.9017 
 127   2.0000      -0.579249       -15.7622 
 128   2.0000      -0.576444       -15.6858 
 129   2.0000      -0.572636       -15.5822 
 130   2.0000      -0.569350       -15.4928 
 131   2.0000      -0.566044       -15.4028 
 132   2.0000      -0.563564       -15.3354 
 133   2.0000      -0.562729       -15.3126 
 134   2.0000      -0.562059       -15.2944 
 135   2.0000      -0.560297       -15.2465 
 136   2.0000      -0.559171       -15.2158 
 137   2.0000      -0.555036       -15.1033 
 138   2.0000      -0.537422       -14.6240 
 139   2.0000      -0.531556       -14.4644 
 140   2.0000      -0.521812       -14.1992 
 141   2.0000      -0.518861       -14.1189 
 142   2.0000      -0.516235       -14.0475 
 143   2.0000      -0.513877       -13.9833 
 144   2.0000      -0.505088       -13.7441 
 145   2.0000      -0.503750       -13.7077 
 146   2.0000      -0.502527       -13.6745 
 147   2.0000      -0.499215       -13.5843 
 148   2.0000      -0.495108       -13.4726 
 149   2.0000      -0.494072       -13.4444 
 150   2.0000      -0.488402       -13.2901 
 151   2.0000      -0.485536       -13.2121 
 152   2.0000      -0.484656       -13.1882 
 153   2.0000      -0.484412       -13.1815 
 154   2.0000      -0.475128       -12.9289 
 155   2.0000      -0.468843       -12.7579 
 156   2.0000      -0.467814       -12.7299 
 157   2.0000      -0.464915       -12.6510 
 158   2.0000      -0.460444       -12.5293 
 159   2.0000      -0.458115       -12.4660 
 160   2.0000      -0.457821       -12.4579 
 161   2.0000      -0.454600       -12.3703 
 162   2.0000      -0.454126       -12.3574 
 163   2.0000      -0.453743       -12.3470 
 164   2.0000      -0.450551       -12.2601 
 165   2.0000      -0.444458       -12.0943 
 166   2.0000      -0.443442       -12.0667 
 167   2.0000      -0.438536       -11.9332 
 168   2.0000      -0.437433       -11.9032 
 169   2.0000      -0.436099       -11.8669 
 170   2.0000      -0.435547       -11.8518 
 171   2.0000      -0.430860       -11.7243 
 172   2.0000      -0.430264       -11.7081 
 173   2.0000      -0.427826       -11.6417 
 174   2.0000      -0.422852       -11.5064 
 175   2.0000      -0.418806       -11.3963 
 176   2.0000      -0.416173       -11.3246 
 177   2.0000      -0.406482       -11.0609 
 178   2.0000      -0.394427       -10.7329 
 179   2.0000      -0.385847       -10.4994 
 180   0.0000       0.096703         2.6314 
 181   0.0000       0.110062         2.9949 
 182   0.0000       0.121362         3.3024 
 183   0.0000       0.124832         3.3969 
 184   0.0000       0.131488         3.5780 
 185   0.0000       0.133668         3.6373 
 186   0.0000       0.141434         3.8486 
 187   0.0000       0.146301         3.9810 
 188   0.0000       0.147912         4.0249 
 189   0.0000       0.148850         4.0504 
 190   0.0000       0.153883         4.1874 
 191   0.0000       0.157685         4.2908 
 192   0.0000       0.157930         4.2975 
 193   0.0000       0.164937         4.4882 
 194   0.0000       0.165875         4.5137 
 195   0.0000       0.171195         4.6584 
 196   0.0000       0.173847         4.7306 
 197   0.0000       0.174752         4.7553 
 198   0.0000       0.180683         4.9166 
 199   0.0000       0.182407         4.9635 
 200   0.0000       0.183026         4.9804 
 201   0.0000       0.186435         5.0732 
 202   0.0000       0.189644         5.1605 
 203   0.0000       0.194900         5.3035 
 204   0.0000       0.199816         5.4373 
 205   0.0000       0.201121         5.4728 
 206   0.0000       0.204752         5.5716 
 207   0.0000       0.205350         5.5879 
 208   0.0000       0.206724         5.6252 
 209   0.0000       0.210367         5.7244 
 210   0.0000       0.212773         5.7898 
 211   0.0000       0.215824         5.8729 
 212   0.0000       0.217185         5.9099 
 213   0.0000       0.220610         6.0031 
 214   0.0000       0.222160         6.0453 
 215   0.0000       0.223409         6.0793 
 216   0.0000       0.224802         6.1172 
 217   0.0000       0.225710         6.1419 
 218   0.0000       0.228329         6.2132 
 219   0.0000       0.229821         6.2537 
 220   0.0000       0.232948         6.3388 
 221   0.0000       0.233959         6.3664 
 222   0.0000       0.236229         6.4281 
 223   0.0000       0.237271         6.4565 
 224   0.0000       0.240319         6.5394 
 225   0.0000       0.241633         6.5752 
 226   0.0000       0.242557         6.6003 
 227   0.0000       0.245657         6.6847 
 228   0.0000       0.246612         6.7107 
 229   0.0000       0.247668         6.7394 
 230   0.0000       0.250531         6.8173 
 231   0.0000       0.253533         6.8990 
 232   0.0000       0.255375         6.9491 
 233   0.0000       0.257704         7.0125 
 234   0.0000       0.259273         7.0552 
 235   0.0000       0.263492         7.1700 
 236   0.0000       0.266107         7.2411 
 237   0.0000       0.267731         7.2853 
 238   0.0000       0.268855         7.3159 
 239   0.0000       0.272614         7.4182 
 240   0.0000       0.274723         7.4756 
 241   0.0000       0.278514         7.5787 
 242   0.0000       0.280171         7.6239 
 243   0.0000       0.282058         7.6752 
 244   0.0000       0.283666         7.7189 
 245   0.0000       0.286437         7.7943 
 246   0.0000       0.290887         7.9154 
 247   0.0000       0.293304         7.9812 
 248   0.0000       0.296134         8.0582 
 249   0.0000       0.298019         8.1095 
 250   0.0000       0.299104         8.1390 
 251   0.0000       0.300587         8.1794 
 252   0.0000       0.302785         8.2392 
 253   0.0000       0.306468         8.3394 
 254   0.0000       0.309780         8.4295 
 255   0.0000       0.311172         8.4674 
 256   0.0000       0.313566         8.5326 
 257   0.0000       0.316371         8.6089 
 258   0.0000       0.317672         8.6443 
 259   0.0000       0.319361         8.6902 
 260   0.0000       0.322896         8.7864 
 261   0.0000       0.325894         8.8680 
 262   0.0000       0.328198         8.9307 
 263   0.0000       0.328865         8.9489 
 264   0.0000       0.329820         8.9749 
 265   0.0000       0.332559         9.0494 
 266   0.0000       0.333144         9.0653 
 267   0.0000       0.333780         9.0826 
 268   0.0000       0.338170         9.2021 
 269   0.0000       0.338881         9.2214 
 270   0.0000       0.348464         9.4822 
 271   0.0000       0.350311         9.5324 
 272   0.0000       0.351642         9.5687 
 273   0.0000       0.352755         9.5989 
 274   0.0000       0.357528         9.7288 
 275   0.0000       0.358397         9.7525 
 276   0.0000       0.362204         9.8561 
 277   0.0000       0.368822        10.0361 
 278   0.0000       0.370892        10.0925 
 279   0.0000       0.373343        10.1592 
 280   0.0000       0.374646        10.1946 
 281   0.0000       0.376092        10.2340 
 282   0.0000       0.380010        10.3406 
 283   0.0000       0.381796        10.3892 
 284   0.0000       0.387060        10.5324 
 285   0.0000       0.389847        10.6083 
 286   0.0000       0.392142        10.6707 
 287   0.0000       0.397372        10.8131 
 288   0.0000       0.398370        10.8402 
 289   0.0000       0.401588        10.9278 
 290   0.0000       0.405862        11.0441 
 291   0.0000       0.408265        11.1094 
 292   0.0000       0.411694        11.2028 
 293   0.0000       0.417471        11.3600 
 294   0.0000       0.419404        11.4126 
 295   0.0000       0.423637        11.5278 
 296   0.0000       0.424541        11.5523 
 297   0.0000       0.428390        11.6571 
 298   0.0000       0.429912        11.6985 
 299   0.0000       0.432883        11.7793 
 300   0.0000       0.435211        11.8427 
 301   0.0000       0.436499        11.8778 
 302   0.0000       0.441200        12.0057 
 303   0.0000       0.443004        12.0548 
 304   0.0000       0.449795        12.2396 
 305   0.0000       0.456357        12.4181 
 306   0.0000       0.457157        12.4399 
 307   0.0000       0.459089        12.4924 
 308   0.0000       0.462601        12.5880 
 309   0.0000       0.464417        12.6374 
 310   0.0000       0.467370        12.7178 
 311   0.0000       0.472823        12.8662 
 312   0.0000       0.475883        12.9494 
 313   0.0000       0.477611        12.9965 
 314   0.0000       0.482347        13.1253 
 315   0.0000       0.482608        13.1324 
 316   0.0000       0.485830        13.2201 
 317   0.0000       0.489230        13.3126 
 318   0.0000       0.495841        13.4925 
 319   0.0000       0.500647        13.6233 
 320   0.0000       0.501661        13.6509 
 321   0.0000       0.503558        13.7025 
 322   0.0000       0.506238        13.7754 
 323   0.0000       0.509125        13.8540 
 324   0.0000       0.511513        13.9190 
 325   0.0000       0.513394        13.9702 
 326   0.0000       0.515963        14.0401 
 327   0.0000       0.520811        14.1720 
 328   0.0000       0.525166        14.2905 
 329   0.0000       0.528983        14.3944 
 330   0.0000       0.530348        14.4315 
 331   0.0000       0.532084        14.4788 
 332   0.0000       0.535073        14.5601 
 333   0.0000       0.539549        14.6819 
 334   0.0000       0.540849        14.7173 
 335   0.0000       0.545127        14.8337 
 336   0.0000       0.545340        14.8394 
 337   0.0000       0.549217        14.9449 
 338   0.0000       0.556375        15.1397 
 339   0.0000       0.560297        15.2464 
 340   0.0000       0.560833        15.2610 
 341   0.0000       0.562720        15.3124 
 342   0.0000       0.564120        15.3505 
 343   0.0000       0.569470        15.4961 
 344   0.0000       0.571741        15.5579 
 345   0.0000       0.573465        15.6048 
 346   0.0000       0.577826        15.7234 
 347   0.0000       0.580754        15.8031 
 348   0.0000       0.583855        15.8875 
 349   0.0000       0.584966        15.9177 
 350   0.0000       0.586365        15.9558 
 351   0.0000       0.590346        16.0641 
 352   0.0000       0.593569        16.1518 
 353   0.0000       0.595646        16.2083 
 354   0.0000       0.598170        16.2770 
 355   0.0000       0.599720        16.3192 
 356   0.0000       0.601195        16.3593 
 357   0.0000       0.603041        16.4096 
 358   0.0000       0.607982        16.5440 
 359   0.0000       0.609686        16.5904 
 360   0.0000       0.611437        16.6381 
 361   0.0000       0.612407        16.6644 
 362   0.0000       0.616174        16.7669 
 363   0.0000       0.618788        16.8381 
 364   0.0000       0.621301        16.9064 
 365   0.0000       0.621459        16.9108 
 366   0.0000       0.625187        17.0122 
 367   0.0000       0.626055        17.0358 
 368   0.0000       0.627675        17.0799 
 369   0.0000       0.631760        17.1911 
 370   0.0000       0.632799        17.2193 
 371   0.0000       0.634787        17.2734 
 372   0.0000       0.635544        17.2940 
 373   0.0000       0.637140        17.3375 
 374   0.0000       0.639964        17.4143 
 375   0.0000       0.642768        17.4906 
 376   0.0000       0.644500        17.5377 
 377   0.0000       0.645698        17.5703 
 378   0.0000       0.648766        17.6538 
 379   0.0000       0.651492        17.7280 
 380   0.0000       0.654198        17.8016 
 381   0.0000       0.655173        17.8282 
 382   0.0000       0.656417        17.8620 
 383   0.0000       0.659861        17.9557 
 384   0.0000       0.660171        17.9642 
 385   0.0000       0.662850        18.0371 
 386   0.0000       0.664332        18.0774 
 387   0.0000       0.666445        18.1349 
 388   0.0000       0.667634        18.1673 
 389   0.0000       0.669840        18.2273 
 390   0.0000       0.671613        18.2755 
 391   0.0000       0.675144        18.3716 
 392   0.0000       0.677794        18.4437 
 393   0.0000       0.679824        18.4989 
 394   0.0000       0.680562        18.5190 
 395   0.0000       0.684811        18.6347 
 396   0.0000       0.686306        18.6753 
 397   0.0000       0.688593        18.7376 
 398   0.0000       0.691226        18.8092 
 399   0.0000       0.693096        18.8601 
 400   0.0000       0.693614        18.8742 
[...]
  VA   - Mayer's total valence
  BVA  - Mayer's bonded valence
  FA   - Mayer's free valence

  ATOM       NA         ZA         QA         VA         BVA        FA
  0 O      8.5514     8.0000    -0.5514     1.7675     1.7675     0.0000
  1 H      0.6508     1.0000     0.3492     0.9007     0.9007     0.0000
  2 C      6.0336     6.0000    -0.0336     3.8966     3.8966     0.0000
  3 H      0.9563     1.0000     0.0437     0.9612     0.9612     0.0000
  4 H      0.8922     1.0000     0.1078     0.9780     0.9780     0.0000
  5 H      0.9138     1.0000     0.0862     0.9456     0.9456    -0.0000
  6 O      8.6055     8.0000    -0.6055     1.7234     1.7234     0.0000
  7 H      0.6204     1.0000     0.3796     0.8757     0.8757     0.0000
  8 C      6.0812     6.0000    -0.0812     3.8827     3.8827     0.0000
  9 H      0.8925     1.0000     0.1075     0.9679     0.9679     0.0000
 10 H      0.8890     1.0000     0.1110     0.9585     0.9585     0.0000
 11 H      0.9133     1.0000     0.0867     0.9672     0.9672    -0.0000
 12 O      8.6114     8.0000    -0.6114     1.7207     1.7207    -0.0000
 13 H      0.5943     1.0000     0.4057     0.8601     0.8601     0.0000
 14 C      6.0564     6.0000    -0.0564     3.9200     3.9200    -0.0000
 15 H      0.8870     1.0000     0.1130     0.9693     0.9693    -0.0000
 16 H      0.9239     1.0000     0.0761     0.9508     0.9508    -0.0000
 17 H      0.9482     1.0000     0.0518     0.9595     0.9595    -0.0000
 18 O      8.6079     8.0000    -0.6079     1.7359     1.7359    -0.0000
 19 H      0.6470     1.0000     0.3530     0.8984     0.8984     0.0000
 20 C      6.1149     6.0000    -0.1149     3.8426     3.8426    -0.0000
 21 H      0.8650     1.0000     0.1350     0.9616     0.9616     0.0000
 22 H      0.8532     1.0000     0.1468     0.9709     0.9709    -0.0000
 23 H      0.9243     1.0000     0.0757     0.9703     0.9703    -0.0000
 24 O      8.5887     8.0000    -0.5887     1.7531     1.7531    -0.0000
 25 H      0.6411     1.0000     0.3589     0.8957     0.8957    -0.0000
 26 C      6.0660     6.0000    -0.0660     3.8745     3.8745    -0.0000
 27 H      0.9233     1.0000     0.0767     0.9561     0.9561     0.0000
 28 H      0.9075     1.0000     0.0925     0.9694     0.9694     0.0000
 29 H      0.8782     1.0000     0.1218     0.9571     0.9571    -0.0000
 30 O      8.5641     8.0000    -0.5641     1.7789     1.7789    -0.0000
 31 H      0.6423     1.0000     0.3577     0.8954     0.8954    -0.0000
 32 C      6.1060     6.0000    -0.1060     3.9020     3.9020    -0.0000
 33 H      0.9099     1.0000     0.0901     0.9672     0.9672    -0.0000
 34 H      0.9041     1.0000     0.0959     0.9613     0.9613     0.0000
 35 H      0.8871     1.0000     0.1129     0.9549     0.9549    -0.0000
 36 O      8.6092     8.0000    -0.6092     1.7340     1.7340     0.0000
 37 H      0.6127     1.0000     0.3873     0.8704     0.8704     0.0000
 38 C      6.0707     6.0000    -0.0707     3.8670     3.8670     0.0000
 39 H      0.8916     1.0000     0.1084     0.9603     0.9603    -0.0000
 40 H      0.9062     1.0000     0.0938     0.9639     0.9639     0.0000
 41 H      0.8918     1.0000     0.1082     0.9512     0.9512     0.0000
 42 O      8.5827     8.0000    -0.5827     1.7572     1.7572    -0.0000
 43 H      0.6474     1.0000     0.3526     0.8942     0.8942     0.0000
 44 C      6.0748     6.0000    -0.0748     3.8616     3.8616    -0.0000
 45 H      0.8837     1.0000     0.1163     0.9602     0.9602    -0.0000
 46 H      0.8976     1.0000     0.1024     0.9673     0.9673     0.0000
 47 H      0.9057     1.0000     0.0943     0.9620     0.9620     0.0000
 48 O      8.6076     8.0000    -0.6076     1.7473     1.7473    -0.0000
 49 H      0.6188     1.0000     0.3812     0.8779     0.8779     0.0000
 50 C      6.0557     6.0000    -0.0557     3.8927     3.8927    -0.0000
 51 H      0.9064     1.0000     0.0936     0.9602     0.9602    -0.0000
 52 H      0.9179     1.0000     0.0821     0.9576     0.9576    -0.0000
 53 H      0.8946     1.0000     0.1054     0.9675     0.9675    -0.0000
 54 O      8.5878     8.0000    -0.5878     1.7410     1.7410    -0.0000
 55 H      0.6709     1.0000     0.3291     0.9013     0.9013    -0.0000
 56 C      6.0574     6.0000    -0.0574     3.8232     3.8232    -0.0000
 57 H      0.8458     1.0000     0.1542     0.9729     0.9729     0.0000
 58 H      0.9080     1.0000     0.0920     0.9865     0.9865     0.0000
 59 H      0.9222     1.0000     0.0778     0.9632     0.9632    -0.0000
 60 O      8.5918     8.0000    -0.5918     1.7441     1.7441    -0.0000
 61 H      0.6611     1.0000     0.3389     0.8957     0.8957     0.0000
 62 C      6.0993     6.0000    -0.0993     3.8539     3.8539    -0.0000
 63 H      0.8576     1.0000     0.1424     0.9636     0.9636    -0.0000
 64 H      0.9090     1.0000     0.0910     0.9680     0.9680     0.0000
 65 H      0.8820     1.0000     0.1180     0.9519     0.9519    -0.0000
 66 O      8.5672     8.0000    -0.5672     1.7988     1.7988     0.0000
 67 H      0.6386     1.0000     0.3614     0.8884     0.8884    -0.0000
 68 C      6.0744     6.0000    -0.0744     3.9236     3.9236     0.0000
 69 H      0.8900     1.0000     0.1100     0.9587     0.9587     0.0000
 70 H      0.9259     1.0000     0.0741     0.9660     0.9660     0.0000
 71 H      0.9095     1.0000     0.0905     0.9516     0.9516    -0.0000
 72 O      8.5747     8.0000    -0.5747     1.7631     1.7631    -0.0000
 73 H      0.6289     1.0000     0.3711     0.8752     0.8752    -0.0000
 74 C      6.0588     6.0000    -0.0588     3.9135     3.9135    -0.0000
 75 H      0.9052     1.0000     0.0948     0.9624     0.9624    -0.0000
 76 H      0.9037     1.0000     0.0963     0.9585     0.9585     0.0000
 77 H      0.9161     1.0000     0.0839     0.9607     0.9607     0.0000
 78 O      8.5570     8.0000    -0.5570     1.7830     1.7830    -0.0000
 79 H      0.6645     1.0000     0.3355     0.8915     0.8915    -0.0000
 80 C      6.0535     6.0000    -0.0535     3.8783     3.8783    -0.0000
 81 H      0.8910     1.0000     0.1090     0.9733     0.9733    -0.0000
 82 H      0.9159     1.0000     0.0841     0.9577     0.9577    -0.0000
 83 H      0.9098     1.0000     0.0902     0.9598     0.9598    -0.0000
 84 O      8.5391     8.0000    -0.5391     1.7985     1.7985    -0.0000
 85 H      0.6794     1.0000     0.3206     0.9036     0.9036     0.0000
 86 C      6.0605     6.0000    -0.0605     3.9024     3.9024    -0.0000
 87 H      0.8628     1.0000     0.1372     0.9570     0.9570    -0.0000
 88 H      0.9544     1.0000     0.0456     0.9496     0.9496    -0.0000
 89 H      0.9076     1.0000     0.0924     0.9676     0.9676    -0.0000
 90 O      8.5561     8.0000    -0.5561     1.7975     1.7975     0.0000
 91 H      0.6696     1.0000     0.3304     0.9039     0.9039     0.0000
 92 C      6.0610     6.0000    -0.0610     3.8829     3.8829    -0.0000
 93 H      0.8658     1.0000     0.1342     0.9641     0.9641    -0.0000
 94 H      0.9396     1.0000     0.0604     0.9685     0.9685    -0.0000
 95 H      0.9073     1.0000     0.0927     0.9606     0.9606    -0.0000
 96 O      8.5338     8.0000    -0.5338     1.8136     1.8136    -0.0000
 97 H      0.6661     1.0000     0.3339     0.8965     0.8965     0.0000
 98 C      6.1198     6.0000    -0.1198     3.8913     3.8913     0.0000
 99 H      0.8804     1.0000     0.1196     0.9545     0.9545     0.0000
100 H      0.9006     1.0000     0.0994     0.9555     0.9555     0.0000
101 H      0.8886     1.0000     0.1114     0.9642     0.9642     0.0000
102 O      8.5327     8.0000    -0.5327     1.7960     1.7960     0.0000
103 H      0.6877     1.0000     0.3123     0.9140     0.9140     0.0000
104 C      6.0714     6.0000    -0.0714     3.8898     3.8898    -0.0000
105 H      0.8575     1.0000     0.1425     0.9483     0.9483    -0.0000
106 H      0.9124     1.0000     0.0876     0.9611     0.9611     0.0000
107 H      0.9322     1.0000     0.0678     0.9660     0.9660    -0.0000
108 O      8.5529     8.0000    -0.5529     1.7733     1.7733     0.0000
109 H      0.6772     1.0000     0.3228     0.9061     0.9061     0.0000
110 C      6.0548     6.0000    -0.0548     3.8952     3.8952    -0.0000
111 H      0.9007     1.0000     0.0993     0.9586     0.9586    -0.0000
112 H      0.9087     1.0000     0.0913     0.9655     0.9655     0.0000
113 H      0.9041     1.0000     0.0959     0.9635     0.9635    -0.0000
114 O      8.5846     8.0000    -0.5846     1.7869     1.7869    -0.0000
115 H      0.6649     1.0000     0.3351     0.9104     0.9104    -0.0000
116 C      6.0385     6.0000    -0.0385     3.9011     3.9011     0.0000
117 H      0.8985     1.0000     0.1015     0.9573     0.9573     0.0000
118 H      0.8848     1.0000     0.1152     0.9553     0.9553     0.0000
119 H      0.9394     1.0000     0.0606     0.9511     0.9511    -0.0000

  Mayer bond orders larger than 0.100000
B(  0-O ,  1-H ) :   0.8841 B(  0-O ,  2-C ) :   0.9141 B(  2-C ,  3-H ) :   0.9998 
B(  2-C ,  4-H ) :   0.9923 B(  2-C ,  5-H ) :   0.9891 B(  6-O ,  7-H ) :   0.8334 
B(  6-O ,  8-C ) :   0.9158 B(  8-C ,  9-H ) :   0.9845 B(  8-C , 10-H ) :   0.9908 
B(  8-C , 11-H ) :   0.9969 B( 12-O , 13-H ) :   0.8069 B( 12-O , 14-C ) :   0.9437 
B( 14-C , 15-H ) :   0.9876 B( 14-C , 16-H ) :   0.9912 B( 14-C , 17-H ) :   1.0008 
B( 18-O , 19-H ) :   0.8754 B( 18-O , 20-C ) :   0.8811 B( 20-C , 21-H ) :   0.9814 
B( 20-C , 22-H ) :   0.9797 B( 20-C , 23-H ) :   0.9944 B( 24-O , 25-H ) :   0.8549 
B( 24-O , 26-C ) :   0.9135 B( 26-C , 27-H ) :   0.9876 B( 26-C , 28-H ) :   0.9948 
B( 26-C , 29-H ) :   0.9912 B( 30-O , 31-H ) :   0.8650 B( 30-O , 32-C ) :   0.9296 
B( 32-C , 33-H ) :   0.9896 B( 32-C , 34-H ) :   0.9898 B( 32-C , 35-H ) :   0.9909 
B( 36-O , 37-H ) :   0.8420 B( 36-O , 38-C ) :   0.8969 B( 38-C , 39-H ) :   0.9900 
B( 38-C , 40-H ) :   0.9959 B( 38-C , 41-H ) :   0.9863 B( 42-O , 43-H ) :   0.8712 
B( 42-O , 44-C ) :   0.8955 B( 44-C , 45-H ) :   0.9804 B( 44-C , 46-H ) :   0.9924 
B( 44-C , 47-H ) :   0.9919 B( 48-O , 49-H ) :   0.8452 B( 48-O , 50-C ) :   0.9066 
B( 50-C , 51-H ) :   0.9919 B( 50-C , 52-H ) :   0.9912 B( 50-C , 53-H ) :   0.9922 
B( 54-O , 55-H ) :   0.8900 B( 54-O , 56-C ) :   0.8492 B( 56-C , 57-H ) :   0.9745 
B( 56-C , 58-H ) :   0.9992 B( 56-C , 59-H ) :   0.9966 B( 60-O , 61-H ) :   0.8872 
B( 60-O , 62-C ) :   0.8725 B( 62-C , 63-H ) :   0.9891 B( 62-C , 64-H ) :   0.9923 
B( 62-C , 65-H ) :   0.9834 B( 66-O , 67-H ) :   0.8566 B( 66-O , 68-C ) :   0.9598 
B( 68-C , 69-H ) :   0.9872 B( 68-C , 70-H ) :   0.9875 B( 68-C , 71-H ) :   0.9891 
B( 72-O , 73-H ) :   0.8594 B( 72-O , 74-C ) :   0.9269 B( 74-C , 75-H ) :   0.9950 
B( 74-C , 76-H ) :   0.9876 B( 74-C , 77-H ) :   0.9971 B( 78-O , 79-H ) :   0.8778 
B( 78-O , 80-C ) :   0.9107 B( 80-C , 81-H ) :   0.9878 B( 80-C , 82-H ) :   0.9954 
B( 80-C , 83-H ) :   0.9847 B( 84-O , 85-H ) :   0.8957 B( 84-O , 86-C ) :   0.9272 
B( 86-C , 87-H ) :   0.9807 B( 86-C , 88-H ) :   0.9870 B( 86-C , 89-H ) :   0.9993 
B( 90-O , 91-H ) :   0.8898 B( 90-O , 92-C ) :   0.9214 B( 92-C , 93-H ) :   0.9813 
B( 92-C , 94-H ) :   0.9870 B( 92-C , 95-H ) :   0.9837 B( 96-O , 97-H ) :   0.8891 
B( 96-O , 98-C ) :   0.9350 B( 98-C , 99-H ) :   0.9857 B( 98-C ,100-H ) :   0.9830 
B( 98-C ,101-H ) :   0.9861 B(102-O ,103-H ) :   0.9004 B(102-O ,104-C ) :   0.9239 
B(104-C ,105-H ) :   0.9811 B(104-C ,106-H ) :   0.9833 B(104-C ,107-H ) :   0.9938 
B(108-O ,109-H ) :   0.8979 B(108-O ,110-C ) :   0.9114 B(110-C ,111-H ) :   0.9813 
B(110-C ,112-H ) :   1.0014 B(110-C ,113-H ) :   0.9948 B(114-O ,115-H ) :   0.8859 
B(114-O ,116-C ) :   0.9223 B(116-C ,117-H ) :   0.9857 B(116-C ,118-H ) :   0.9891 
B(116-C ,119-H ) :   0.9950 

-------
TIMINGS
-------

Total SCF time: 0 days 0 hours 13 min 25 sec 

Total time                  ....     805.305 sec
Sum of individual times     ....     800.669 sec  ( 99.4%)

Fock matrix formation       ....     786.697 sec  ( 97.7%)
Diagonalization             ....       3.566 sec  (  0.4%)
Density matrix formation    ....       0.468 sec  (  0.1%)
Population analysis         ....       0.891 sec  (  0.1%)
Initial guess               ....       1.713 sec  (  0.2%)
Orbital Transformation      ....       0.000 sec  (  0.0%)
Orbital Orthonormalization  ....       0.000 sec  (  0.0%)
DIIS solution               ....       3.784 sec  (  0.5%)
SOSCF solution              ....       2.849 sec  (  0.4%)


           ************************************************************
           *        Program running with 24 parallel MPI-processes    *
           *              working on a common directory               *
           ************************************************************

------------------------------------------------------------------------------
                                ORCA  MP2 
------------------------------------------------------------------------------

Freezing NCore=80 chemical core electrons

-------------
RI-MP2 ENERGY
-------------
Dimension of the basis                    ... 1720
Memory devoted to MP2                     ... 8000 MB   
Data format for buffers                   ... DOUBLE
Compression type for matrix containers    ... UNCOMPRESSED
Overall scaling of the MP2 energy         ...   1.000e+00
Calculating two index integrals           ... done (    0.118 sec)
Cholesky decomposition of V**-1           ... done (    1.719 sec)

-----------------
RI-TRANSFORMATION (AUX index driven)
-----------------

Dimension of the orbital-basis         ... 1720
Dimension of the aux-basis             ... 4240
Transformation of internal/external MOs...   40- 179 to  180-1719
Number Format for Storage              ... Double (8 Byte)
Integral mode                          ... Direct

First Phase: integral generation and transformation of MO indices
  Aux angular momentum 0               ... done (    1.932 sec)
  Aux angular momentum 1               ... done (    3.093 sec)
  Aux angular momentum 2               ... done (    2.958 sec)
  Aux angular momentum 3               ... done (    1.909 sec)
  Aux angular momentum 4               ... done (    0.968 sec)
Closing buffer VIA ( 6.81 GB; CompressionRatio= 1.00)
  Phase 1 completed in    11.446 sec
Second Phase: sorting and transformation of aux index

IA-Transformation
Memory available                       ... 7635 MB 
Max. # MO pairs treated in a batch     ... 6    
# of internal orbitals                 ... 140
# batches for internal orbitals        ... 1
Closing buffer IAV ( 0.29 GB; CompressionRatio= 1.00)
(ia|v) transformation done in     8.765 sec

  Phase 2 completed in    18.574 sec
RI-Integral transformation completed in    30.032 sec
Opening buffers                              ... done

Starting loop over batches of integrals:

Operator 0  - window                       ... ( 40-179)x(180-1719)
Operator 0  - Memory available             ...  8000 MB
Operator 0  - Memory needed per MO         ...  49.8 MB
Operator 0  - Number of orbitals per batch ... 6
Operator 0  - Number of batches            ... 1

OPERATOR  0   PASS   0:  MOs    40 ...   45 +   46 ...   51 +   52 ...   57 +   58 ...   63
                            +   64 ...   69 +   70 ...   75 +   76 ...   81 +   82 ...   87
                            +   88 ...   93 +   94 ...   99 +  100 ...  105 +  106 ...  111
                            +  112 ...  117 +  118 ...  123 +  124 ...  129 +  130 ...  135
                            +  136 ...  141 +  142 ...  147 +  148 ...  153 +  154 ...  159
                            +  160 ...  165 +  166 ...  171 +  172 ...  177 +  178 ...  179
  Reading integrals       ... ok
  Internal MO  42
  Internal MO  45
Time spent in pair loops =     8.249 sec
Deleting buffer (Ka|jb)[aa] ...done

-----------------------------------------------
 RI-MP2 CORRELATION ENERGY:     -8.404765289 Eh
-----------------------------------------------


-------
TIMINGS
-------

Total time                :  329.096 sec
Integral trafo            :   30.049 sec (  9.1%)
I/O of integrals          :    0.333 sec (  0.1%)
K(i,j) Operators          :    7.079 sec (  2.2%)
T(i,j) pair energies      :    0.522 sec (  0.2%)
V-calculation             :    0.118 sec (  0.0%)
V**(-1/2)                 :    1.719 sec (  0.5%)
Gamma(ia|P)               :    0.000 sec (  0.0%)
Gamma-Trafo               :    0.000 sec (  0.0%)
D(virtual)                :    0.000 sec (  0.0%)
D(internal)               :    0.000 sec (  0.0%)
W(virtual)                :    0.000 sec (  0.0%)
W(internal)               :    0.000 sec (  0.0%)
L(virtual)                :    0.000 sec (  0.0%)
L(internal)               :    0.000 sec (  0.0%)
G(D)                      :    0.000 sec (  0.0%)
G(Z)                      :    0.000 sec (  0.0%)
Z-Vector Solution         :    0.000 sec (  0.0%)
3-Index Derivative        :    0.000 sec (  0.0%)
2-Index Derivative        :    0.000 sec (  0.0%)
Separable Gradient        :    0.000 sec (  0.0%)


---------------------------------------
MP2 TOTAL ENERGY:    -2310.186614900 Eh
---------------------------------------

-------------------------   --------------------
FINAL SINGLE POINT ENERGY     -2310.186614899537
-------------------------   --------------------


                            ***************************************
                            *     ORCA property calculations      *
                            ***************************************


  WARNING: The energy has been calculated at the MP2 level but the densities
           used in the property calculations are still SCF densities
           MP2 response densities have not been calculated 
           use %mp2 Density relaxed end
           or  %mp2 Density unrelaxed end

                                    ---------------------
                                    Active property flags
                                    ---------------------
   (+) Dipole Moment


------------------------------------------------------------------------------
                       ORCA ELECTRIC PROPERTIES CALCULATION
------------------------------------------------------------------------------

Dipole Moment Calculation                       ... on
Quadrupole Moment Calculation                   ... off
Polarizability Calculation                      ... off
GBWName                                         ... input.gbw
Electron density file                           ... input.scfp
The origin for moment calculation is the CENTER OF MASS  = ( 0.753850, -0.128462 -0.019847)

-------------
DIPOLE MOMENT
-------------
                                X             Y             Z
Electronic contribution:    -10.16905       6.54515       0.01748
Nuclear contribution   :     12.55438      -9.73478       1.57580
                        -----------------------------------------
Total Dipole Moment    :      2.38533      -3.18963       1.59328
                        -----------------------------------------
Magnitude (a.u.)       :      4.28976
Magnitude (Debye)      :     10.90371



--------------------
Rotational spectrum 
--------------------
 
Rotational constants in cm-1:     0.001671     0.001321     0.001185 
Rotational constants in MHz :    50.090651    39.591766    35.538032 

 Dipole components along the rotational axes: 
x,y,z [a.u.] :     0.553170    -3.503872     2.412249 
x,y,z [Debye]:     1.406046    -8.906134     6.131451 

 

Timings for individual modules:

Sum of individual times         ...     1142.719 sec (=  19.045 min)
GTO integral calculation        ...        4.671 sec (=   0.078 min)   0.4 %
SCF iterations                  ...      806.879 sec (=  13.448 min)  70.6 %
MP2 module                      ...      331.169 sec (=   5.519 min)  29.0 %
                             ****ORCA TERMINATED NORMALLY****
TOTAL RUN TIME: 0 days 0 hours 19 minutes 4 seconds 702 msec
