
                                 *****************
                                 * O   R   C   A *
                                 *****************

           --- An Ab Initio, DFT and Semiempirical electronic structure package ---

                  #######################################################
                  #                        -***-                        #
                  #          Department of theory and spectroscopy      #
                  #               Directorship: Frank Neese             #
                  #        Max Planck Institute fuer Kohlenforschung    #
                  #                Kaiser Wilhelm Platz 1               #
                  #                 D-45470 Muelheim/Ruhr               #
                  #                      Germany                        #
                  #                                                     #
                  #                  All rights reserved                #
                  #                        -***-                        #
                  #######################################################


                         Program Version 4.2.0 -  RELEASE  -


 With contributions from (in alphabetic order):
   Daniel Aravena         : Magnetic Suceptibility
   Michael Atanasov       : Ab Initio Ligand Field Theory (pilot matlab implementation)
   Alexander A. Auer      : GIAO ZORA, VPT2
   Ute Becker             : Parallelization
   Giovanni Bistoni       : ED, misc. LED, open-shell LED, HFLED
   Martin Brehm           : Molecular dynamics
   Dmytro Bykov           : SCF Hessian
   Vijay G. Chilkuri      : MRCI spin determinant printing, contributions to CSF-ICE
   Dipayan Datta          : RHF DLPNO-CCSD density
   Achintya Kumar Dutta   : EOM-CC, STEOM-CC
   Dmitry Ganyushin       : Spin-Orbit,Spin-Spin,Magnetic field MRCI
   Miquel Garcia          : C-PCM Hessian, Gaussian charge scheme
   Yang Guo               : DLPNO-NEVPT2, CIM, IAO-localization
   Andreas Hansen         : Spin unrestricted coupled pair/coupled cluster methods
   Benjamin Helmich-Paris : CASSCF linear response (MC-RPA)
   Lee Huntington         : MR-EOM, pCC
   Robert Izsak           : Overlap fitted RIJCOSX, COSX-SCS-MP3, EOM
   Christian Kollmar      : KDIIS, OOCD, Brueckner-CCSD(T), CCSD density
   Simone Kossmann        : Meta GGA functionals, TD-DFT gradient, OOMP2, MP2 Hessian
   Martin Krupicka        : AUTO-CI
   Lucas Lang             : DCDCAS
   Dagmar Lenk            : GEPOL surface, SMD
   Dimitrios Liakos       : Extrapolation schemes; Compound Job, initial MDCI parallelization
   Dimitrios Manganas     : Further ROCIS development; embedding schemes
   Dimitrios Pantazis     : SARC Basis sets
   Taras Petrenko         : DFT Hessian,TD-DFT gradient, ASA, ECA, R-Raman, ABS, FL, XAS/XES, NRVS
   Peter Pinski           : DLPNO-MP2, DLPNO-MP2 Gradient
   Christoph Reimann      : Effective Core Potentials
   Marius Retegan         : Local ZFS, SOC
   Christoph Riplinger    : Optimizer, TS searches, QM/MM, DLPNO-CCSD(T), (RO)-DLPNO pert. Triples
   Tobias Risthaus        : Range-separated hybrids, TD-DFT gradient, RPA, STAB
   Michael Roemelt        : Original ROCIS implementation
   Masaaki Saitow         : Open-shell DLPNO-CCSD energy and density
   Barbara Sandhoefer     : DKH picture change effects
   Avijit Sen             : IP-ROCIS
   Kantharuban Sivalingam : CASSCF convergence, NEVPT2, FIC-MRCI
   Bernardo de Souza      : ESD, SOC TD-DFT
   Georgi Stoychev        : AutoAux, RI-MP2 NMR
   Willem Van den Heuvel  : Paramagnetic NMR
   Boris Wezisla          : Elementary symmetry handling
   Frank Wennmohs         : Technical directorship


 We gratefully acknowledge several colleagues who have allowed us to
 interface, adapt or use parts of their codes:
   Stefan Grimme, W. Hujo, H. Kruse,             : VdW corrections, initial TS optimization,
                  C. Bannwarth                     DFT functionals, gCP, sTDA/sTD-DF
   Ed Valeev, F. Pavosevic, A. Kumar             : LibInt (2-el integral package), F12 methods
   Garnet Chan, S. Sharma, J. Yang, R. Olivares  : DMRG
   Ulf Ekstrom                                   : XCFun DFT Library
   Mihaly Kallay                                 : mrcc  (arbitrary order and MRCC methods)
   Andreas Klamt, Michael Diedenhofen            : otool_cosmo (COSMO solvation model)
   Jiri Pittner, Ondrej Demel                    : Mk-CCSD
   Frank Weinhold                                : gennbo (NPA and NBO analysis)
   Christopher J. Cramer and Donald G. Truhlar   : smd solvation model
   Lars Goerigk                                  : TD-DFT with DH, B97 family of functionals
   V. Asgeirsson, H. Jonsson                     : NEB implementation
   FAccTs GmbH                                   : IRC, NEB, NEB-TS, Multilevel, MM, QM/MM, CI optimization
   S Lehtola, MJT Oliveira, MAL Marques          : LibXC Library


 Your calculation uses the libint2 library for the computation of 2-el integrals
 For citations please refer to: http://libint.valeyev.net

 Your ORCA version has been built with support for libXC version: 4.2.3
 For citations please refer to: https://tddft.org/programs/libxc/

 This ORCA versions uses:
   CBLAS   interface :  Fast vector & matrix operations
   LAPACKE interface :  Fast linear algebra routines
   SCALAPACK package :  Parallel linear algebra routines


----- Orbital basis set information -----
Your calculation utilizes the basis: def2-TZVP
   F. Weigend and R. Ahlrichs, Phys. Chem. Chem. Phys. 7, 3297 (2005).

----- AuxC basis set information -----
Your calculation utilizes the auxiliary basis: def2-TZVP/C
  H-La, Hf-Rn : A. Hellweg, C. Hattig, S. Hofener and W. Klopper, Theor. Chem. Acc. 117, 587 (2007).
        Ce-Lu : J. Chmela and M. E. Harding, Mol. Phys. (2018).

================================================================================
                                        WARNINGS
                       Please study these warnings very carefully!
================================================================================


WARNING: No MP2 level density has been requested!
         To caclulate MP2 level properties use
         %mp2 Density relaxed end
         or
         %mp2 Density unrelaxed end

INFO   : the flag for use of LIBINT has been found!

================================================================================
                                       INPUT FILE
================================================================================
NAME = input.inp
|  1> ! RI-MP2 def2-TZVP def2-TZVP/C TightSCF FrozenCore
|  2> 
|  3> %pal nprocs 24 end
|  4> %maxcore 8000
|  5> %scf ConvForced true end
|  6> 
|  7> *xyz  0  1
|  8> O     0.00000     0.00000     0.00000
|  9> H     0.76017    -0.59164     0.09309
| 10> C    -1.01132    -0.75494    -0.59786
| 11> H    -1.96446    -0.17931    -0.44304
| 12> H    -1.12986    -1.68393    -0.01903
| 13> H    -0.73917    -0.98362    -1.67680
| 14> O     2.16826    -2.08701     0.60347
| 15> H     2.01564    -3.02661     0.89880
| 16> C     2.73068    -1.24854     1.65310
| 17> H     3.41316    -0.56092     1.19112
| 18> H     3.22664    -1.85744     2.37059
| 19> H     1.89271    -0.81542     2.10610
| 20> O     1.25462     2.65390    -0.92550
| 21> H     0.41507     2.10541    -0.83180
| 22> C     1.94485     2.69702     0.30405
| 23> H     3.00192     2.97468     0.10237
| 24> H     1.92441     1.76679     0.82872
| 25> H     1.48496     3.45977     0.87784
| 26> O    -1.67281    -0.41829     3.76592
| 27> H    -1.05753     0.16459     4.21953
| 28> C    -0.93378    -1.51589     3.44895
| 29> H    -1.20983    -2.42901     3.98115
| 30> H     0.10051    -1.32296     3.70213
| 31> H    -1.16679    -1.68345     2.39398
| 32> O    -1.71312    -3.39194    -2.20426
| 33> H    -2.22283    -2.86593    -2.85433
| 34> C    -2.45952    -4.63905    -2.05700
| 35> H    -2.57457    -4.90850    -0.99693
| 36> H    -1.82291    -5.32594    -2.42563
| 37> H    -3.41140    -4.61840    -2.65026
| 38> O     1.59665    -4.57012     1.29104
| 39> H     2.02684    -5.24666     0.67319
| 40> C     1.47945    -5.15182     2.55224
| 41> H     1.38716    -4.40399     3.33755
| 42> H     2.33628    -5.79151     2.81470
| 43> H     0.54834    -5.80549     2.52657
| 44> O     4.08583    -0.66479    -2.91683
| 45> H     5.03360    -0.81541    -2.83191
| 46> C     3.77579     0.41748    -2.05017
| 47> H     2.74074     0.40523    -1.84973
| 48> H     3.97442     1.44443    -2.46470
| 49> H     4.26025     0.24818    -1.07841
| 50> O    -0.99164     4.43343    -2.49650
| 51> H    -0.90097     4.24015    -1.52952
| 52> C     0.36680     4.57337    -2.94171
| 53> H     0.38734     5.02753    -3.92863
| 54> H     0.87983     3.62557    -3.00061
| 55> H     0.97750     5.31192    -2.33772
| 56> O    -4.25594    -2.30671    -3.35334
| 57> H    -4.28121    -1.34093    -3.48959
| 58> C    -5.60139    -2.65012    -3.54666
| 59> H    -5.77629    -3.67756    -3.23233
| 60> H    -5.90892    -2.52982    -4.61199
| 61> H    -6.13842    -2.00753    -2.93760
| 62> O     2.63635    -1.30909    -5.15921
| 63> H     3.36318    -1.48406    -4.56596
| 64> C     1.51763    -1.67885    -4.35834
| 65> H     0.74556    -2.07358    -4.99729
| 66> H     1.08158    -0.85946    -3.81186
| 67> H     1.75182    -2.47823    -3.69990
| 68> O    -5.41155     0.84679     2.32296
| 69> H    -5.92824     1.05919     1.58831
| 70> C    -4.73166    -0.38947     2.06556
| 71> H    -4.66654    -0.96633     2.98717
| 72> H    -3.74158    -0.19621     1.71558
| 73> H    -5.31285    -0.91203     1.26865
| 74> O    -0.06278     2.09245    -5.85250
| 75> H    -0.67574     1.47795    -6.21649
| 76> C     1.17429     1.51456    -6.16087
| 77> H     1.88392     2.36799    -6.49128
| 78> H     1.04376     0.78859    -6.96143
| 79> H     1.61552     1.00279    -5.33866
| 80> O     5.96769     0.09143     1.96153
| 81> H     5.96405    -0.83476     2.20329
| 82> C     5.24598     0.78171     3.07486
| 83> H     5.77642     1.73328     3.27280
| 84> H     5.13743     0.08660     3.93076
| 85> H     4.20566     1.09789     2.66420
| 86> O     5.05775    -3.83355    -0.37649
| 87> H     4.26904    -3.27212    -0.07473
| 88> C     5.92259    -2.93186    -0.86718
| 89> H     6.57930    -3.47406    -1.47743
| 90> H     6.55047    -2.52322    -0.03051
| 91> H     5.39471    -2.19684    -1.39548
| 92> O    -0.68219     5.02131     3.97284
| 93> H    -1.31901     5.12677     3.31801
| 94> C    -0.18233     3.76042     4.03339
| 95> H     0.22087     3.60321     4.98950
| 96> H     0.65316     3.66517     3.23979
| 97> H    -0.97465     3.09516     3.79824
| 98> O    -4.51476     0.40393    -4.58404
| 99> H    -4.88202     0.55227    -5.45216
|100> C    -3.60266     1.42723    -4.33703
|101> H    -2.71641     0.98783    -3.81347
|102> H    -4.14323     2.15092    -3.72013
|103> H    -3.25305     1.83463    -5.34140
|104> O     4.57097     4.76206    -0.55078
|105> H     5.23731     4.06837    -0.26253
|106> C     4.54749     4.64374    -1.93295
|107> H     3.62473     5.03538    -2.34928
|108> H     4.71900     3.62971    -2.12390
|109> H     5.30743     5.33072    -2.34401
|110> O     6.16055     2.52336    -0.18794
|111> H     5.90696     1.77174     0.37098
|112> C     7.09442     2.00857    -1.13126
|113> H     6.89128     2.37053    -2.13423
|114> H     6.94209     0.94563    -1.19548
|115> H     8.15728     2.20954    -0.88133
|116> O     2.36282    -6.34494    -0.90143
|117> H     2.35229    -5.40181    -1.21465
|118> C     1.09681    -6.86715    -1.22740
|119> H     0.50873    -7.15523    -0.36079
|120> H     1.24986    -7.76701    -1.78410
|121> H     0.53722    -6.26004    -1.95636
|122> O     5.61598    -2.80317     2.71800
|123> H     5.41765    -3.69230     2.46517
|124> C     6.85797    -2.87329     3.43292
|125> H     7.46962    -2.08107     3.17729
|126> H     7.26384    -3.82062     3.08150
|127> H     6.71501    -2.91277     4.47625
|128> *
|129> 
|130>                          ****END OF INPUT****
================================================================================

                       ****************************
                       * Single Point Calculation *
                       ****************************

---------------------------------
CARTESIAN COORDINATES (ANGSTROEM)
---------------------------------
  O      0.000000    0.000000    0.000000
  H      0.760170   -0.591640    0.093090
  C     -1.011320   -0.754940   -0.597860
  H     -1.964460   -0.179310   -0.443040
  H     -1.129860   -1.683930   -0.019030
  H     -0.739170   -0.983620   -1.676800
  O      2.168260   -2.087010    0.603470
  H      2.015640   -3.026610    0.898800
  C      2.730680   -1.248540    1.653100
  H      3.413160   -0.560920    1.191120
  H      3.226640   -1.857440    2.370590
  H      1.892710   -0.815420    2.106100
  O      1.254620    2.653900   -0.925500
  H      0.415070    2.105410   -0.831800
  C      1.944850    2.697020    0.304050
  H      3.001920    2.974680    0.102370
  H      1.924410    1.766790    0.828720
  H      1.484960    3.459770    0.877840
  O     -1.672810   -0.418290    3.765920
  H     -1.057530    0.164590    4.219530
  C     -0.933780   -1.515890    3.448950
  H     -1.209830   -2.429010    3.981150
  H      0.100510   -1.322960    3.702130
  H     -1.166790   -1.683450    2.393980
  O     -1.713120   -3.391940   -2.204260
  H     -2.222830   -2.865930   -2.854330
  C     -2.459520   -4.639050   -2.057000
  H     -2.574570   -4.908500   -0.996930
  H     -1.822910   -5.325940   -2.425630
  H     -3.411400   -4.618400   -2.650260
  O      1.596650   -4.570120    1.291040
  H      2.026840   -5.246660    0.673190
  C      1.479450   -5.151820    2.552240
  H      1.387160   -4.403990    3.337550
  H      2.336280   -5.791510    2.814700
  H      0.548340   -5.805490    2.526570
  O      4.085830   -0.664790   -2.916830
  H      5.033600   -0.815410   -2.831910
  C      3.775790    0.417480   -2.050170
  H      2.740740    0.405230   -1.849730
  H      3.974420    1.444430   -2.464700
  H      4.260250    0.248180   -1.078410
  O     -0.991640    4.433430   -2.496500
  H     -0.900970    4.240150   -1.529520
  C      0.366800    4.573370   -2.941710
  H      0.387340    5.027530   -3.928630
  H      0.879830    3.625570   -3.000610
  H      0.977500    5.311920   -2.337720
  O     -4.255940   -2.306710   -3.353340
  H     -4.281210   -1.340930   -3.489590
  C     -5.601390   -2.650120   -3.546660
  H     -5.776290   -3.677560   -3.232330
  H     -5.908920   -2.529820   -4.611990
  H     -6.138420   -2.007530   -2.937600
  O      2.636350   -1.309090   -5.159210
  H      3.363180   -1.484060   -4.565960
  C      1.517630   -1.678850   -4.358340
  H      0.745560   -2.073580   -4.997290
  H      1.081580   -0.859460   -3.811860
  H      1.751820   -2.478230   -3.699900
  O     -5.411550    0.846790    2.322960
  H     -5.928240    1.059190    1.588310
  C     -4.731660   -0.389470    2.065560
  H     -4.666540   -0.966330    2.987170
  H     -3.741580   -0.196210    1.715580
  H     -5.312850   -0.912030    1.268650
  O     -0.062780    2.092450   -5.852500
  H     -0.675740    1.477950   -6.216490
  C      1.174290    1.514560   -6.160870
  H      1.883920    2.367990   -6.491280
  H      1.043760    0.788590   -6.961430
  H      1.615520    1.002790   -5.338660
  O      5.967690    0.091430    1.961530
  H      5.964050   -0.834760    2.203290
  C      5.245980    0.781710    3.074860
  H      5.776420    1.733280    3.272800
  H      5.137430    0.086600    3.930760
  H      4.205660    1.097890    2.664200
  O      5.057750   -3.833550   -0.376490
  H      4.269040   -3.272120   -0.074730
  C      5.922590   -2.931860   -0.867180
  H      6.579300   -3.474060   -1.477430
  H      6.550470   -2.523220   -0.030510
  H      5.394710   -2.196840   -1.395480
  O     -0.682190    5.021310    3.972840
  H     -1.319010    5.126770    3.318010
  C     -0.182330    3.760420    4.033390
  H      0.220870    3.603210    4.989500
  H      0.653160    3.665170    3.239790
  H     -0.974650    3.095160    3.798240
  O     -4.514760    0.403930   -4.584040
  H     -4.882020    0.552270   -5.452160
  C     -3.602660    1.427230   -4.337030
  H     -2.716410    0.987830   -3.813470
  H     -4.143230    2.150920   -3.720130
  H     -3.253050    1.834630   -5.341400
  O      4.570970    4.762060   -0.550780
  H      5.237310    4.068370   -0.262530
  C      4.547490    4.643740   -1.932950
  H      3.624730    5.035380   -2.349280
  H      4.719000    3.629710   -2.123900
  H      5.307430    5.330720   -2.344010
  O      6.160550    2.523360   -0.187940
  H      5.906960    1.771740    0.370980
  C      7.094420    2.008570   -1.131260
  H      6.891280    2.370530   -2.134230
  H      6.942090    0.945630   -1.195480
  H      8.157280    2.209540   -0.881330
  O      2.362820   -6.344940   -0.901430
  H      2.352290   -5.401810   -1.214650
  C      1.096810   -6.867150   -1.227400
  H      0.508730   -7.155230   -0.360790
  H      1.249860   -7.767010   -1.784100
  H      0.537220   -6.260040   -1.956360
  O      5.615980   -2.803170    2.718000
  H      5.417650   -3.692300    2.465170
  C      6.857970   -2.873290    3.432920
  H      7.469620   -2.081070    3.177290
  H      7.263840   -3.820620    3.081500
  H      6.715010   -2.912770    4.476250

----------------------------
CARTESIAN COORDINATES (A.U.)
----------------------------
  NO LB      ZA    FRAG     MASS         X           Y           Z
   0 O     8.0000    0    15.999    0.000000    0.000000    0.000000
   1 H     1.0000    0     1.008    1.436513   -1.118038    0.175915
   2 C     6.0000    0    12.011   -1.911118   -1.426630   -1.129792
   3 H     1.0000    0     1.008   -3.712291   -0.338847   -0.837224
   4 H     1.0000    0     1.008   -2.135126   -3.182167   -0.035961
   5 H     1.0000    0     1.008   -1.396829   -1.858772   -3.168693
   6 O     8.0000    0    15.999    4.097418   -3.943877    1.140393
   7 H     1.0000    0     1.008    3.809008   -5.719464    1.698486
   8 C     6.0000    0    12.011    5.160237   -2.359399    3.123906
   9 H     1.0000    0     1.008    6.449938   -1.059985    2.250891
  10 H     1.0000    0     1.008    6.097466   -3.510053    4.479766
  11 H     1.0000    0     1.008    3.576704   -1.540920    3.979952
  12 O     8.0000    0    15.999    2.370888    5.015144   -1.748942
  13 H     1.0000    0     1.008    0.784369    3.978648   -1.571874
  14 C     6.0000    0    12.011    3.675234    5.096629    0.574571
  15 H     1.0000    0     1.008    5.672807    5.621331    0.193451
  16 H     1.0000    0     1.008    3.636608    3.338749    1.566054
  17 H     1.0000    0     1.008    2.806168    6.538018    1.658877
  18 O     8.0000    0    15.999   -3.161153   -0.790454    7.116557
  19 H     1.0000    0     1.008   -1.998442    0.311030    7.973756
  20 C     6.0000    0    12.011   -1.764588   -2.864617    6.517571
  21 H     1.0000    0     1.008   -2.286247   -4.590164    7.523283
  22 H     1.0000    0     1.008    0.189936   -2.500032    6.996012
  23 H     1.0000    0     1.008   -2.204914   -3.181259    4.523967
  24 O     8.0000    0    15.999   -3.237328   -6.409838   -4.165448
  25 H     1.0000    0     1.008   -4.200540   -5.415823   -5.393902
  26 C     6.0000    0    12.011   -4.647819   -8.766534   -3.887167
  27 H     1.0000    0     1.008   -4.865232   -9.275721   -1.883925
  28 H     1.0000    0     1.008   -3.444801  -10.064568   -4.583776
  29 H     1.0000    0     1.008   -6.446612   -8.727511   -5.008266
  30 O     8.0000    0    15.999    3.017231   -8.636275    2.439712
  31 H     1.0000    0     1.008    3.830173   -9.914751    1.272145
  32 C     6.0000    0    12.011    2.795755   -9.735529    4.823035
  33 H     1.0000    0     1.008    2.621353   -8.322335    6.307055
  34 H     1.0000    0     1.008    4.414929  -10.944368    5.319012
  35 H     1.0000    0     1.008    1.036212  -10.970786    4.774525
  36 O     8.0000    0    15.999    7.721100   -1.256271   -5.512010
  37 H     1.0000    0     1.008    9.512125   -1.540902   -5.351534
  38 C     6.0000    0    12.011    7.135209    0.788923   -3.874260
  39 H     1.0000    0     1.008    5.179248    0.765774   -3.495483
  40 H     1.0000    0     1.008    7.510565    2.729577   -4.657608
  41 H     1.0000    0     1.008    8.050706    0.468992   -2.037900
  42 O     8.0000    0    15.999   -1.873928    8.377969   -4.717701
  43 H     1.0000    0     1.008   -1.702587    8.012722   -2.890374
  44 C     6.0000    0    12.011    0.693152    8.642417   -5.559026
  45 H     1.0000    0     1.008    0.731967    9.500655   -7.424035
  46 H     1.0000    0     1.008    1.662638    6.851334   -5.670331
  47 H     1.0000    0     1.008    1.847207   10.038074   -4.417651
  48 O     8.0000    0    15.999   -8.042561   -4.359050   -6.336894
  49 H     1.0000    0     1.008   -8.090314   -2.533990   -6.594369
  50 C     6.0000    0    12.011  -10.585093   -5.008001   -6.702216
  51 H     1.0000    0     1.008  -10.915606   -6.949581   -6.108218
  52 H     1.0000    0     1.008  -11.166241   -4.780667   -8.715398
  53 H     1.0000    0     1.008  -11.599933   -3.793682   -5.551259
  54 O     8.0000    0    15.999    4.981979   -2.473822   -9.749494
  55 H     1.0000    0     1.008    6.355489   -2.804467   -8.628414
  56 C     6.0000    0    12.011    2.867905   -3.172567   -8.236069
  57 H     1.0000    0     1.008    1.408904   -3.918498   -9.443510
  58 H     1.0000    0     1.008    2.043890   -1.624144   -7.203371
  59 H     1.0000    0     1.008    3.310460   -4.683176   -6.991798
  60 O     8.0000    0    15.999  -10.226347    1.600201    4.389758
  61 H     1.0000    0     1.008  -11.202750    2.001579    3.001471
  62 C     6.0000    0    12.011   -8.941542   -0.735992    3.903343
  63 H     1.0000    0     1.008   -8.818483   -1.826099    5.644933
  64 H     1.0000    0     1.008   -7.070562   -0.370783    3.241976
  65 H     1.0000    0     1.008  -10.039831   -1.723487    2.397401
  66 O     8.0000    0    15.999   -0.118637    3.954157  -11.059622
  67 H     1.0000    0     1.008   -1.276964    2.792921  -11.747464
  68 C     6.0000    0    12.011    2.219087    2.862104  -11.642357
  69 H     1.0000    0     1.008    3.560093    4.474853  -12.266741
  70 H     1.0000    0     1.008    1.972421    1.490219  -13.155196
  71 H     1.0000    0     1.008    3.052890    1.894998  -10.088605
  72 O     8.0000    0    15.999   11.277300    0.172778    3.706755
  73 H     1.0000    0     1.008   11.270421   -1.577468    4.163615
  74 C     6.0000    0    12.011    9.913466    1.477218    5.810643
  75 H     1.0000    0     1.008   10.915852    3.275425    6.184696
  76 H     1.0000    0     1.008    9.708336    0.163650    7.428060
  77 H     1.0000    0     1.008    7.947546    2.074711    5.034608
  78 O     8.0000    0    15.999    9.557762   -7.244360   -0.711463
  79 H     1.0000    0     1.008    8.067316   -6.183411   -0.141219
  80 C     6.0000    0    12.011   11.192073   -5.540412   -1.638733
  81 H     1.0000    0     1.008   12.433075   -6.565022   -2.791938
  82 H     1.0000    0     1.008   12.378594   -4.768195   -0.057656
  83 H     1.0000    0     1.008   10.194524   -4.151426   -2.637075
  84 O     8.0000    0    15.999   -1.289152    9.488901    7.507580
  85 H     1.0000    0     1.008   -2.492568    9.688191    6.270130
  86 C     6.0000    0    12.011   -0.344554    7.106164    7.622002
  87 H     1.0000    0     1.008    0.417384    6.809080    9.428789
  88 H     1.0000    0     1.008    1.234294    6.926168    6.122316
  89 H     1.0000    0     1.008   -1.841822    5.849005    7.177633
  90 O     8.0000    0    15.999   -8.531660    0.763317   -8.662580
  91 H     1.0000    0     1.008   -9.225681    1.043639  -10.303089
  92 C     6.0000    0    12.011   -6.808041    2.697074   -8.195799
  93 H     1.0000    0     1.008   -5.133271    1.866728   -7.206414
  94 H     1.0000    0     1.008   -7.829570    4.064650   -7.030027
  95 H     1.0000    0     1.008   -6.147374    3.466948  -10.093783
  96 O     8.0000    0    15.999    8.637881    8.998989   -1.040823
  97 H     1.0000    0     1.008    9.897082    7.688105   -0.496110
  98 C     6.0000    0    12.011    8.593511    8.775397   -3.652746
  99 H     1.0000    0     1.008    6.849747    9.515489   -4.439496
 100 H     1.0000    0     1.008    8.917618    6.859158   -4.013589
 101 H     1.0000    0     1.008   10.029589   10.073601   -4.429537
 102 O     8.0000    0    15.999   11.641752    4.768459   -0.355155
 103 H     1.0000    0     1.008   11.162537    3.348103    0.701051
 104 C     6.0000    0    12.011   13.406511    3.795647   -2.137772
 105 H     1.0000    0     1.008   13.022632    4.479652   -4.033110
 106 H     1.0000    0     1.008   13.118649    1.786982   -2.259130
 107 H     1.0000    0     1.008   15.415025    4.175425   -1.665472
 108 O     8.0000    0    15.999    4.465083  -11.990199   -1.703456
 109 H     1.0000    0     1.008    4.445184  -10.207942   -2.295356
 110 C     6.0000    0    12.011    2.072671  -12.977033   -2.319450
 111 H     1.0000    0     1.008    0.961360  -13.521425   -0.681794
 112 H     1.0000    0     1.008    2.361893  -14.677522   -3.371460
 113 H     1.0000    0     1.008    1.015199  -11.829761   -3.696985
 114 O     8.0000    0    15.999   10.612664   -5.297224    5.136276
 115 H     1.0000    0     1.008   10.237875   -6.977436    4.658496
 116 C     6.0000    0    12.011   12.959685   -5.429731    6.487279
 117 H     1.0000    0     1.008   14.115536   -3.932652    6.004208
 118 H     1.0000    0     1.008   13.726668   -7.219925    5.823191
 119 H     1.0000    0     1.008   12.689530   -5.504338    8.458887

--------------------------------
INTERNAL COORDINATES (ANGSTROEM)
--------------------------------
 O      0   0   0     0.000000000000     0.00000000     0.00000000
 H      1   0   0     0.967761368623     0.00000000     0.00000000
 C      1   2   0     1.396473818444   106.23239575     0.00000000
 H      3   1   2     1.124186367512   106.15498731   164.34039821
 H      3   1   2     1.100962451948   108.00201378    51.51560166
 H      3   1   2     1.135989299465   109.99578482   290.46599833
 O      2   1   3     2.116444336476   167.88817583   290.39925204
 H      7   2   1     0.996674888467   129.46937053    32.27056952
 C      7   2   1     1.456389829064    91.37241236   270.74291096
 H      9   7   2     1.073324617811   107.70857861   278.49520943
 H      9   7   2     1.063732782093   109.67098251   157.42352907
 H      9   7   2     1.046420400843   103.94814032    41.50562303
 O      1   2   3     3.077954971146   103.64274604   221.52688239
 H     13   1   2     1.007206618624    33.14631201   163.84125898
 C     13   1   2     1.410698404975    87.92077581   297.00212151
 H     15  13   1     1.111380620175   108.35135251   134.86287710
 H     15  13   1     1.068187369051   113.08674048    13.96514548
 H     15  13   1     1.059491075328   106.35882680   252.32213761
 O     12   9   7     3.952928982375   161.02703608    46.84614112
 H     19  12   9     0.961291113503    71.44160308   142.24159028
 C     19  12   9     1.360647302500    48.02748627    11.04006953
 H     21  19  12     1.092350024900   115.05960538   159.73825981
 H     21  19  12     1.082163528031   108.71136286    41.00562650
 H     21  19  12     1.093312267653   103.45366519   275.77335851
 O      6   3   1     2.650810796058   106.49044495   145.81156964
 H     25   6   3     0.979327222689    80.52199653   118.02542319
 C     25   6   3     1.460849691002   160.60681524     9.47635978
 H     27  25   6     1.099812806754   111.08547989   330.67649167
 H     27  25   6     1.006468201733   102.85734177   219.26743984
 H     27  25   6     1.121810761448   111.37777142   100.51582307
 O      8   7   2     1.646762872365   173.29707208    26.10878131
 H     31   8   7     1.012180038432   111.89821350    97.29728786
 C     31   8   7     1.393820709417   128.90961609   236.11362931
 H     33  31   8     1.088337699935   111.91765693    18.38385442
 H     33  31   8     1.101020525058   113.12481561   257.35378764
 H     33  31   8     1.137940793671   106.74573796   138.75401425
 O     10   9   7     4.163955704411   120.75509391   359.08169442
 H     37  10   9     0.963413599499    94.35082909   238.42794264
 C     37  10   9     1.420750755798    49.00053925   130.61310126
 H     39  37  10     1.054350396500   108.74418482   280.89080711
 H     39  37  10     1.125129014958   115.59587609   163.50924783
 H     39  37  10     1.098945621585   109.01694645    35.13211737
 O     14  13   1     3.189002388601    85.50240996   187.07816457
 H     43  14  13     0.990266897205    46.16291498   264.69403868
 C     43  14  13     1.436368469892    79.38215070    25.46471497
 H     45  43  14     1.086597572057   109.88419869   154.40466127
 H     45  43  14     1.079348799462   112.38875120    34.15513994
 H     45  43  14     1.132790586384   114.08662274   267.76391990
 O     26  25   6     2.166858154241   141.24478495   242.56296523
 H     49  26  25     0.975670868582   108.17519433   131.56409953
 C     49  26  25     1.401976730549   150.34084530   314.78295702
 H     51  49  26     1.088589138518   110.21600398     8.19357975
 H     51  49  26     1.115336182413   111.70945371   246.26145986
 H     51  49  26     1.035508190504   105.34304012   126.13070236
 O     37  10   9     2.746703992934   136.55292305    31.16171921
 H     55  37  10     0.954380381347    29.96129194   245.33096408
 C     55  37  10     1.424657731843    90.93630589   357.30543211
 H     57  55  37     1.077107682778   108.93612235   184.19787881
 H     57  55  37     1.077116504841   113.93270958    65.04108657
 H     57  55  37     1.061789326609   111.76522676   299.13602948
 O     19  12   9     4.202468055274   133.51385541   260.90628880
 H     61  19  12     0.922926290990   147.20949615    11.42872701
 C     61  19  12     1.434170129273    51.71162751    73.36626882
 H     63  61  19     1.089207540416   109.45169205    66.35711027
 H     63  61  19     1.067751766283   110.02239453   307.18909692
 H     63  61  19     1.116206216521   106.54999739   188.59389282
 O     47  45  43     3.372276251822   108.21034252    79.13552408
 H     67  47  45     0.941179542755   143.69981984   266.63390272
 C     67  47  45     1.399782516643    97.29430896   143.24691673
 H     69  67  47     1.158053655881   107.46704701   288.68638690
 H     69  67  47     1.088561819742   109.35194089   168.34813022
 H     69  67  47     1.064247024849   113.24910691    48.76343644
 O     10   9   7     2.746764571546   128.51965864   226.97070032
 H     73  10   9     0.957229890517    80.64828789    35.33303175
 C     73  10   9     1.495612079184    82.50856386   288.82899099
 H     75  73  10     1.107263429406   107.37012438   218.67947007
 H     75  73  10     1.107937644726   109.43718762    91.22199952
 H     75  73  10     1.162272399397   107.12514626   330.97817592
 O      8   7   2     3.395872494632    88.59958144   153.20472911
 H     79   8   7     1.014064202405    19.93870520     7.94802474
 C     79   8   7     1.342300174253   123.69946128     6.29037623
 H     81  79   8     1.047689804570   105.61313740   199.79657103
 H     81  79   8     1.123047921017   109.40864990    86.36329613
 H     81  79   8     1.047860956807   109.32490365   321.24619965
 O     18  15  13     4.088272409478   156.21502885   113.51704284
 H     85  18  15     0.919491083644    82.63419668   253.31724689
 C     85  18  15     1.357707595250    58.92785412    16.05891653
 H     87  85  18     1.049491093912   108.73474694   137.14082444
 H     87  85  18     1.156251297340   108.17525901    18.19108113
 H     87  85  18     1.060960589513   107.30714175   259.99140058
 O     50  49  26     2.072897205507   155.48677151   114.06304678
 H     91  50  49     0.954210143312   130.88682216    13.75838786
 C     91  50  49     1.392868708852   116.80772252   222.01033912
 H     93  91  50     1.119207977143   108.24384841    17.62630772
 H     93  91  50     1.093850424418   105.21596743   256.81490146
 H     93  91  50     1.138841959624   107.90514632   134.33327811
 O     16  15  13     2.466424555789   146.53076655    72.19778765
 H     97  16  15     1.004142855474    81.11229317   169.27993585
 C     97  16  15     1.387423814737   101.02552508   271.71028335
 H     99  97  16     1.085448559859   111.45191667    74.26699454
 H     99  97  16     1.046008806607   105.17440403   309.29406024
 H     99  97  16     1.103820930948   107.83401269   186.12677443
 O     98  97  16     1.801386040192   160.82082645    60.35510418
 H    103  98  97     0.970377286884   123.65842127   269.25868637
 C    103  98  97     1.423718561865   128.23321598    69.67138988
 H    105 103  98     1.085462906828   111.64724250   332.64750090
 H    105 103  98     1.075718402232   107.69535380   218.66170940
 H    105 103  98     1.110191571487   114.41587303    97.14123248
 O     32  31   8     1.948981699042   160.57640533   281.18411861
 H    109  32  31     0.993836931393    73.62253018    55.54627119
 C    109  32  31     1.407743245446   103.95060756   313.04545948
 H    111 109  32     1.086204890847   113.61193281   320.38445686
 H    111 109  32     1.069152567270   107.70090863   203.73734431
 H    111 109  32     1.101411004939   113.93448594    92.50103842
 O     74  73  10     2.064150439551   170.50988672   340.22970361
 H    115  74  73     0.945415228722   149.94369768    82.72051689
 C    115  74  73     1.434770567338    91.42600972   208.17415880
 H    117 115  74     1.032993198332   110.59547007   344.47477325
 H    117 115  74     1.088880435218   101.79225222   225.88203790
 H    117 115  74     1.053818637575   112.19264163   108.65471982

---------------------------
INTERNAL COORDINATES (A.U.)
---------------------------
 O      0   0   0     0.000000000000     0.00000000     0.00000000
 H      1   0   0     1.828803949687     0.00000000     0.00000000
 C      1   2   0     2.638953070051   106.23239575     0.00000000
 H      3   1   2     2.124404358086   106.15498731   164.34039821
 H      3   1   2     2.080517517913   108.00201378    51.51560166
 H      3   1   2     2.146708667055   109.99578482   290.46599833
 O      2   1   3     3.999500173628   167.88817583   290.39925204
 H      7   2   1     1.883442583758   129.46937053    32.27056952
 C      7   2   1     2.752177921159    91.37241236   270.74291096
 H      9   7   2     2.028289580459   107.70857861   278.49520943
 H      9   7   2     2.010163637831   109.67098251   157.42352907
 H      9   7   2     1.977447978541   103.94814032    41.50562303
 O      1   2   3     5.816491948007   103.64274604   221.52688239
 H     13   1   2     1.903344669472    33.14631201   163.84125898
 C     13   1   2     2.665833642963    87.92077581   297.00212151
 H     15  13   1     2.100205002678   108.35135251   134.86287710
 H     15  13   1     2.018581587220   113.08674048    13.96514548
 H     15  13   1     2.002147973704   106.35882680   252.32213761
 O     12   9   7     7.469953203529   161.02703608    46.84614112
 H     19  12   9     1.816576939493    71.44160308   142.24159028
 C     19  12   9     2.571250766583    48.02748627    11.04006953
 H     21  19  12     2.064242389444   115.05960538   159.73825981
 H     21  19  12     2.044992700096   108.71136286    41.00562650
 H     21  19  12     2.066060764720   103.45366519   275.77335851
 O      6   3   1     5.009306437392   106.49044495   145.81156964
 H     25   6   3     1.850660246376    80.52199653   118.02542319
 C     25   6   3     2.760605838817   160.60681524     9.47635978
 H     27  25   6     2.078345003344   111.08547989   330.67649167
 H     27  25   6     1.901949263776   102.85734177   219.26743984
 H     27  25   6     2.119915113222   111.37777142   100.51582307
 O      8   7   2     3.111930836279   173.29707208    26.10878131
 H     31   8   7     1.912743070858   111.89821350    97.29728786
 C     31   8   7     2.633939420586   128.90961609   236.11362931
 H     33  31   8     2.056660194099   111.91765693    18.38385442
 H     33  31   8     2.080627260187   113.12481561   257.35378764
 H     33  31   8     2.150396456655   106.74573796   138.75401425
 O     10   9   7     7.868735915117   120.75509391   359.08169442
 H     37  10   9     1.820587856749    94.35082909   238.42794264
 C     37  10   9     2.684829833019    49.00053925   130.61310126
 H     39  37  10     1.992433498577   108.74418482   280.89080711
 H     39  37  10     2.126185703599   115.59587609   163.50924783
 H     39  37  10     2.076706260867   109.01694645    35.13211737
 O     14  13   1     6.026341154876    85.50240996   187.07816457
 H     43  14  13     1.871333235205    46.16291498   264.69403868
 C     43  14  13     2.714343035495    79.38215070    25.46471497
 H     45  43  14     2.053371828971   109.88419869   154.40466127
 H     45  43  14     2.039673633960   112.38875120    34.15513994
 H     45  43  14     2.140663975350   114.08662274   267.76391990
 O     26  25   6     4.094768482569   141.24478495   242.56296523
 H     49  26  25     1.843750738465   108.17519433   131.56409953
 C     49  26  25     2.649352066867   150.34084530   314.78295702
 H     51  49  26     2.057135344161   110.21600398     8.19357975
 H     51  49  26     2.107679932014   111.70945371   246.26145986
 H     51  49  26     1.956826889484   105.34304012   126.13070236
 O     37  10   9     5.190518317593   136.55292305    31.16171921
 H     55  37  10     1.803517548333    29.96129194   245.33096408
 C     55  37  10     2.692212947757    90.93630589   357.30543211
 H     57  55  37     2.035438537193   108.93612235   184.19787881
 H     57  55  37     2.035455208475   113.93270958    65.04108657
 H     57  55  37     2.006491039211   111.76522676   299.13602948
 O     19  12   9     7.941513711021   133.51385541   260.90628880
 H     61  19  12     1.744077931766   147.20949615    11.42872701
 C     61  19  12     2.710188773777    51.71162751    73.36626882
 H     63  61  19     2.058303954389   109.45169205    66.35711027
 H     63  61  19     2.017758417285   110.02239453   307.18909692
 H     63  61  19     2.109324058205   106.54999739   188.59389282
 O     47  45  43     6.372678563869   108.21034252    79.13552408
 H     67  47  45     1.778571578656   143.69981984   266.63390272
 C     67  47  45     2.645205603507    97.29430896   143.24691673
 H     69  67  47     2.188404258002   107.46704701   288.68638690
 H     69  67  47     2.057083719155   109.35194089   168.34813022
 H     69  67  47     2.011135415805   113.24910691    48.76343644
 O     10   9   7     5.190632794579   128.51965864   226.97070032
 H     73  10   9     1.808902340281    80.64828789    35.33303175
 C     73  10   9     2.826297232242    82.50856386   288.82899099
 H     75  73  10     2.092424639684   107.37012438   218.67947007
 H     75  73  10     2.093698721993   109.43718762    91.22199952
 H     75  73  10     2.196376527876   107.12514626   330.97817592
 O      8   7   2     6.417269000571    88.59958144   153.20472911
 H     79   8   7     1.916303624759    19.93870520     7.94802474
 C     79   8   7     2.536579718853   123.69946128     6.29037623
 H     81  79   8     1.979846803939   105.61313740   199.79657103
 H     81  79   8     2.122253005991   109.40864990    86.36329613
 H     81  79   8     1.980170234793   109.32490365   321.24619965
 O     18  15  13     7.725715214780   156.21502885   113.51704284
 H     85  18  15     1.737586330669    82.63419668   253.31724689
 C     85  18  15     2.565695524968    58.92785412    16.05891653
 H     87  85  18     1.983250747483   108.73474694   137.14082444
 H     87  85  18     2.184998293963   108.17525901    18.19108113
 H     87  85  18     2.004924953063   107.30714175   259.99140058
 O     50  49  26     3.917208022179   155.48677151   114.06304678
 H     91  50  49     1.803195845070   130.88682216    13.75838786
 C     91  50  49     2.632140400239   116.80772252   222.01033912
 H     93  91  50     2.114996563700   108.24384841    17.62630772
 H     93  91  50     2.067077733624   105.21596743   256.81490146
 H     93  91  50     2.152099413507   107.90514632   134.33327811
 O     16  15  13     4.660866940420   146.53076655    72.19778765
 H     97  16  15     1.897554996180    81.11229317   169.27993585
 C     97  16  15     2.621851041534   101.02552508   271.71028335
 H     99  97  16     2.051200510593   111.45191667    74.26699454
 H     99  97  16     1.976670178158   105.17440403   309.29406024
 H     99  97  16     2.085919260383   107.83401269   186.12677443
 O     98  97  16     3.404126277432   160.82082645    60.35510418
 H    103  98  97     1.833747318788   123.65842127   269.25868637
 C    103  98  97     2.690438173706   128.23321598    69.67138988
 H    105 103  98     2.051227622435   111.64724250   332.64750090
 H    105 103  98     2.032813177437   107.69535380   218.66170940
 H    105 103  98     2.097958026297   114.41587303    97.14123248
 O     32  31   8     3.683041651214   160.57640533   281.18411861
 H    109  32  31     1.878079622109    73.62253018    55.54627119
 C    109  32  31     2.660249200771   103.95060756   313.04545948
 H    111 109  32     2.052629769027   113.61193281   320.38445686
 H    111 109  32     2.020405547519   107.70090863   203.73734431
 H    111 109  32     2.081365160221   113.93448594    92.50103842
 O     74  73  10     3.900679029965   170.50988672   340.22970361
 H    115  74  73     1.786575865124   149.94369768    82.72051689
 C    115  74  73     2.711323437280    91.42600972   208.17415880
 H    117 115  74     1.952074243051   110.59547007   344.47477325
 H    117 115  74     2.057685815147   101.79225222   225.88203790
 H    117 115  74     1.991428619838   112.19264163   108.65471982

---------------------
BASIS SET INFORMATION
---------------------
There are 3 groups of distinct atoms

 Group   1 Type O   : 11s6p2d1f contracted to 5s3p2d1f pattern {62111/411/11/1}
 Group   2 Type H   : 5s1p contracted to 3s1p pattern {311/1}
 Group   3 Type C   : 11s6p2d1f contracted to 5s3p2d1f pattern {62111/411/11/1}

Atom   0O    basis set group =>   1
Atom   1H    basis set group =>   2
Atom   2C    basis set group =>   3
Atom   3H    basis set group =>   2
Atom   4H    basis set group =>   2
Atom   5H    basis set group =>   2
Atom   6O    basis set group =>   1
Atom   7H    basis set group =>   2
Atom   8C    basis set group =>   3
Atom   9H    basis set group =>   2
Atom  10H    basis set group =>   2
Atom  11H    basis set group =>   2
Atom  12O    basis set group =>   1
Atom  13H    basis set group =>   2
Atom  14C    basis set group =>   3
Atom  15H    basis set group =>   2
Atom  16H    basis set group =>   2
Atom  17H    basis set group =>   2
Atom  18O    basis set group =>   1
Atom  19H    basis set group =>   2
Atom  20C    basis set group =>   3
Atom  21H    basis set group =>   2
Atom  22H    basis set group =>   2
Atom  23H    basis set group =>   2
Atom  24O    basis set group =>   1
Atom  25H    basis set group =>   2
Atom  26C    basis set group =>   3
Atom  27H    basis set group =>   2
Atom  28H    basis set group =>   2
Atom  29H    basis set group =>   2
Atom  30O    basis set group =>   1
Atom  31H    basis set group =>   2
Atom  32C    basis set group =>   3
Atom  33H    basis set group =>   2
Atom  34H    basis set group =>   2
Atom  35H    basis set group =>   2
Atom  36O    basis set group =>   1
Atom  37H    basis set group =>   2
Atom  38C    basis set group =>   3
Atom  39H    basis set group =>   2
Atom  40H    basis set group =>   2
Atom  41H    basis set group =>   2
Atom  42O    basis set group =>   1
Atom  43H    basis set group =>   2
Atom  44C    basis set group =>   3
Atom  45H    basis set group =>   2
Atom  46H    basis set group =>   2
Atom  47H    basis set group =>   2
Atom  48O    basis set group =>   1
Atom  49H    basis set group =>   2
Atom  50C    basis set group =>   3
Atom  51H    basis set group =>   2
Atom  52H    basis set group =>   2
Atom  53H    basis set group =>   2
Atom  54O    basis set group =>   1
Atom  55H    basis set group =>   2
Atom  56C    basis set group =>   3
Atom  57H    basis set group =>   2
Atom  58H    basis set group =>   2
Atom  59H    basis set group =>   2
Atom  60O    basis set group =>   1
Atom  61H    basis set group =>   2
Atom  62C    basis set group =>   3
Atom  63H    basis set group =>   2
Atom  64H    basis set group =>   2
Atom  65H    basis set group =>   2
Atom  66O    basis set group =>   1
Atom  67H    basis set group =>   2
Atom  68C    basis set group =>   3
Atom  69H    basis set group =>   2
Atom  70H    basis set group =>   2
Atom  71H    basis set group =>   2
Atom  72O    basis set group =>   1
Atom  73H    basis set group =>   2
Atom  74C    basis set group =>   3
Atom  75H    basis set group =>   2
Atom  76H    basis set group =>   2
Atom  77H    basis set group =>   2
Atom  78O    basis set group =>   1
Atom  79H    basis set group =>   2
Atom  80C    basis set group =>   3
Atom  81H    basis set group =>   2
Atom  82H    basis set group =>   2
Atom  83H    basis set group =>   2
Atom  84O    basis set group =>   1
Atom  85H    basis set group =>   2
Atom  86C    basis set group =>   3
Atom  87H    basis set group =>   2
Atom  88H    basis set group =>   2
Atom  89H    basis set group =>   2
Atom  90O    basis set group =>   1
Atom  91H    basis set group =>   2
Atom  92C    basis set group =>   3
Atom  93H    basis set group =>   2
Atom  94H    basis set group =>   2
Atom  95H    basis set group =>   2
Atom  96O    basis set group =>   1
Atom  97H    basis set group =>   2
Atom  98C    basis set group =>   3
Atom  99H    basis set group =>   2
Atom 100H    basis set group =>   2
Atom 101H    basis set group =>   2
Atom 102O    basis set group =>   1
Atom 103H    basis set group =>   2
Atom 104C    basis set group =>   3
Atom 105H    basis set group =>   2
Atom 106H    basis set group =>   2
Atom 107H    basis set group =>   2
Atom 108O    basis set group =>   1
Atom 109H    basis set group =>   2
Atom 110C    basis set group =>   3
Atom 111H    basis set group =>   2
Atom 112H    basis set group =>   2
Atom 113H    basis set group =>   2
Atom 114O    basis set group =>   1
Atom 115H    basis set group =>   2
Atom 116C    basis set group =>   3
Atom 117H    basis set group =>   2
Atom 118H    basis set group =>   2
Atom 119H    basis set group =>   2
---------------------------------
AUXILIARY/C BASIS SET INFORMATION
---------------------------------
There are 3 groups of distinct atoms

 Group   1 Type O   : 8s6p5d3f1g contracted to 8s6p4d3f1g pattern {11111111/111111/2111/111/1}
 Group   2 Type H   : 4s3p2d contracted to 4s2p1d pattern {1111/21/2}
 Group   3 Type C   : 8s6p5d3f1g contracted to 8s6p4d3f1g pattern {11111111/111111/2111/111/1}

Atom   0O    basis set group =>   1
Atom   1H    basis set group =>   2
Atom   2C    basis set group =>   3
Atom   3H    basis set group =>   2
Atom   4H    basis set group =>   2
Atom   5H    basis set group =>   2
Atom   6O    basis set group =>   1
Atom   7H    basis set group =>   2
Atom   8C    basis set group =>   3
Atom   9H    basis set group =>   2
Atom  10H    basis set group =>   2
Atom  11H    basis set group =>   2
Atom  12O    basis set group =>   1
Atom  13H    basis set group =>   2
Atom  14C    basis set group =>   3
Atom  15H    basis set group =>   2
Atom  16H    basis set group =>   2
Atom  17H    basis set group =>   2
Atom  18O    basis set group =>   1
Atom  19H    basis set group =>   2
Atom  20C    basis set group =>   3
Atom  21H    basis set group =>   2
Atom  22H    basis set group =>   2
Atom  23H    basis set group =>   2
Atom  24O    basis set group =>   1
Atom  25H    basis set group =>   2
Atom  26C    basis set group =>   3
Atom  27H    basis set group =>   2
Atom  28H    basis set group =>   2
Atom  29H    basis set group =>   2
Atom  30O    basis set group =>   1
Atom  31H    basis set group =>   2
Atom  32C    basis set group =>   3
Atom  33H    basis set group =>   2
Atom  34H    basis set group =>   2
Atom  35H    basis set group =>   2
Atom  36O    basis set group =>   1
Atom  37H    basis set group =>   2
Atom  38C    basis set group =>   3
Atom  39H    basis set group =>   2
Atom  40H    basis set group =>   2
Atom  41H    basis set group =>   2
Atom  42O    basis set group =>   1
Atom  43H    basis set group =>   2
Atom  44C    basis set group =>   3
Atom  45H    basis set group =>   2
Atom  46H    basis set group =>   2
Atom  47H    basis set group =>   2
Atom  48O    basis set group =>   1
Atom  49H    basis set group =>   2
Atom  50C    basis set group =>   3
Atom  51H    basis set group =>   2
Atom  52H    basis set group =>   2
Atom  53H    basis set group =>   2
Atom  54O    basis set group =>   1
Atom  55H    basis set group =>   2
Atom  56C    basis set group =>   3
Atom  57H    basis set group =>   2
Atom  58H    basis set group =>   2
Atom  59H    basis set group =>   2
Atom  60O    basis set group =>   1
Atom  61H    basis set group =>   2
Atom  62C    basis set group =>   3
Atom  63H    basis set group =>   2
Atom  64H    basis set group =>   2
Atom  65H    basis set group =>   2
Atom  66O    basis set group =>   1
Atom  67H    basis set group =>   2
Atom  68C    basis set group =>   3
Atom  69H    basis set group =>   2
Atom  70H    basis set group =>   2
Atom  71H    basis set group =>   2
Atom  72O    basis set group =>   1
Atom  73H    basis set group =>   2
Atom  74C    basis set group =>   3
Atom  75H    basis set group =>   2
Atom  76H    basis set group =>   2
Atom  77H    basis set group =>   2
Atom  78O    basis set group =>   1
Atom  79H    basis set group =>   2
Atom  80C    basis set group =>   3
Atom  81H    basis set group =>   2
Atom  82H    basis set group =>   2
Atom  83H    basis set group =>   2
Atom  84O    basis set group =>   1
Atom  85H    basis set group =>   2
Atom  86C    basis set group =>   3
Atom  87H    basis set group =>   2
Atom  88H    basis set group =>   2
Atom  89H    basis set group =>   2
Atom  90O    basis set group =>   1
Atom  91H    basis set group =>   2
Atom  92C    basis set group =>   3
Atom  93H    basis set group =>   2
Atom  94H    basis set group =>   2
Atom  95H    basis set group =>   2
Atom  96O    basis set group =>   1
Atom  97H    basis set group =>   2
Atom  98C    basis set group =>   3
Atom  99H    basis set group =>   2
Atom 100H    basis set group =>   2
Atom 101H    basis set group =>   2
Atom 102O    basis set group =>   1
Atom 103H    basis set group =>   2
Atom 104C    basis set group =>   3
Atom 105H    basis set group =>   2
Atom 106H    basis set group =>   2
Atom 107H    basis set group =>   2
Atom 108O    basis set group =>   1
Atom 109H    basis set group =>   2
Atom 110C    basis set group =>   3
Atom 111H    basis set group =>   2
Atom 112H    basis set group =>   2
Atom 113H    basis set group =>   2
Atom 114O    basis set group =>   1
Atom 115H    basis set group =>   2
Atom 116C    basis set group =>   3
Atom 117H    basis set group =>   2
Atom 118H    basis set group =>   2
Atom 119H    basis set group =>   2


           ************************************************************
           *        Program running with 24 parallel MPI-processes    *
           *              working on a common directory               *
           ************************************************************
------------------------------------------------------------------------------
                           ORCA GTO INTEGRAL CALCULATION
------------------------------------------------------------------------------

                         BASIS SET STATISTICS AND STARTUP INFO

 # of primitive gaussian shells          ... 1280
 # of primitive gaussian functions       ... 2480
 # of contracted shells                  ...  760
 # of contracted basis functions         ... 1720
 Highest angular momentum                ...    3
 Maximum contraction depth               ...    6
 Integral package used                   ... LIBINT
 Integral threshhold            Thresh   ...  2.500e-11
 Primitive cut-off              TCut     ...  2.500e-12


------------------------------ INTEGRAL EVALUATION ----------------------------


 * One electron integrals 
 Pre-screening matrix                    ... done
 Shell pair data                         ... done (   0.040 sec)



           ************************************************************
           *        Program running with 24 parallel MPI-processes    *
           *              working on a common directory               *
           ************************************************************
-------------------------------------------------------------------------------
                                 ORCA SCF
-------------------------------------------------------------------------------

------------
SCF SETTINGS
------------
Hamiltonian:
 Ab initio Hamiltonian  Method          .... Hartree-Fock(GTOs)


General Settings:
 Integral files         IntName         .... input
 Hartree-Fock type      HFTyp           .... RHF
 Total Charge           Charge          ....    0
 Multiplicity           Mult            ....    1
 Number of Electrons    NEL             ....  360
 Basis Dimension        Dim             .... 1720
 Nuclear Repulsion      ENuc            ....   5693.3102036118 Eh

Convergence Acceleration:
 DIIS                   CNVDIIS         .... on
   Start iteration      DIISMaxIt       ....    12
   Startup error        DIISStart       ....  0.200000
   # of expansion vecs  DIISMaxEq       ....     5
   Bias factor          DIISBfac        ....   1.050
   Max. coefficient     DIISMaxC        ....  10.000
 Newton-Raphson         CNVNR           .... off
 SOSCF                  CNVSOSCF        .... on
   Start iteration      SOSCFMaxIt      ....   150
   Startup grad/error   SOSCFStart      ....  0.003300
 Level Shifting         CNVShift        .... on
   Level shift para.    LevelShift      ....    0.2500
   Turn off err/grad.   ShiftErr        ....    0.0010
 Zerner damping         CNVZerner       .... off
 Static damping         CNVDamp         .... on
   Fraction old density DampFac         ....    0.7000
   Max. Damping (<1)    DampMax         ....    0.9800
   Min. Damping (>=0)   DampMin         ....    0.0000
   Turn off err/grad.   DampErr         ....    0.1000
 Fernandez-Rico         CNVRico         .... off

SCF Procedure:
 Maximum # iterations   MaxIter         ....   125
 SCF integral mode      SCFMode         .... Direct
   Integral package                     .... LIBINT
 Reset frequency        DirectResetFreq ....    20
 Integral Threshold     Thresh          ....  2.500e-11 Eh
 Primitive CutOff       TCut            ....  2.500e-12 Eh

Convergence Tolerance:
 Convergence Check Mode ConvCheckMode   .... Total+1el-Energy
 Convergence forced     ConvForced      .... 1
 Energy Change          TolE            ....  1.000e-08 Eh
 1-El. energy change                    ....  1.000e-05 Eh
 Orbital Gradient       TolG            ....  1.000e-05
 Orbital Rotation angle TolX            ....  1.000e-05
 DIIS Error             TolErr          ....  5.000e-07


Diagonalization of the overlap matrix:
Smallest eigenvalue                        ... 3.585e-04
Time for diagonalization                   ...    0.494 sec
Threshold for overlap eigenvalues          ... 1.000e-08
Number of eigenvalues below threshold      ... 0
Time for construction of square roots      ...    0.332 sec
Total time needed                          ...    0.835 sec

-------------------
DFT GRID GENERATION
-------------------

General Integration Accuracy     IntAcc      ...  4.340
Radial Grid Type                 RadialGrid  ... Gauss-Chebyshev
Angular Grid (max. acc.)         AngularGrid ... Lebedev-110
Angular grid pruning method      GridPruning ... 3 (G Style)
Weight generation scheme         WeightScheme... Becke
Basis function cutoff            BFCut       ...    1.0000e-11
Integration weight cutoff        WCut        ...    1.0000e-14
Grids for H and He will be reduced by one unit

# of grid points (after initial pruning)     ... 130960 (   0.0 sec)
# of grid points (after weights+screening)   ... 115186 (   0.4 sec)
nearest neighbour list constructed           ...    0.0 sec
Grid point re-assignment to atoms done       ...    0.0 sec
Grid point division into batches done        ...    0.1 sec
Reduced shell lists constructed in    0.3 sec

Total number of grid points                  ...   115186
Total number of batches                      ...     1857
Average number of points per batch           ...       62
Average number of grid points per atom       ...      960
Average number of shells per batch           ...   248.39 (32.68%)
Average number of basis functions per batch  ...   466.49 (27.12%)
Average number of large shells per batch     ...   127.67 (51.40%)
Average number of large basis fcns per batch ...   242.38 (51.96%)
Maximum spatial batch extension              ...   5.08,  5.58,  6.32 au
Average spatial batch extension              ...   0.09,  0.09,  0.09 au

Time for grid setup =    0.700 sec

------------------------------
INITIAL GUESS: MODEL POTENTIAL
------------------------------
Loading Hartree-Fock densities                     ... done
Calculating cut-offs                               ... done
Setting up the integral package                    ... done
Initializing the effective Hamiltonian             ... done
Starting the Coulomb interaction                   ... done (   0.6 sec)
Reading the grid                                   ... done
Mapping shells                                     ... done
Starting the XC term evaluation                    ... done (   0.2 sec)
Transforming the Hamiltonian                       ... done (   0.2 sec)
Diagonalizing the Hamiltonian                      ... done (   0.4 sec)
Back transforming the eigenvectors                 ... done (   0.1 sec)
Now organizing SCF variables                       ... done
                      ------------------
                      INITIAL GUESS DONE (   2.4 sec)
                      ------------------
--------------
SCF ITERATIONS
--------------
ITER       Energy         Delta-E        Max-DP      RMS-DP      [F,P]     Damp
               ***  Starting incremental Fock matrix formation  ***
  0  -2299.4361331986   0.000000000000 0.03916346  0.00031102  0.2917044 0.7000
  1  -2300.2643611052  -0.828227906610 0.02656193  0.00023334  0.2184407 0.7000
                               ***Turning on DIIS***
  2  -2300.7476007071  -0.483239601876 0.01539570  0.00014470  0.1627955 0.7000
  3  -2306.5435472583  -5.795946551239 0.00850139  0.00008275  0.1198341 0.7000
  4  -2305.5677777223   0.975769536011 0.01848773  0.00020311  0.0844809 0.0000
  5  -2301.9197119896   3.648065732636 0.00374090  0.00002937  0.0065040 0.0000
                      *** Initiating the SOSCF procedure ***
                           *** Shutting down DIIS ***
                      *** Re-Reading the Fockian *** 
                      *** Removing any level shift *** 
ITER      Energy       Delta-E        Grad      Rot      Max-DP    RMS-DP
  6  -2301.77146613   0.1482458568  0.000374  0.000374  0.002257  0.000016
               *** Restarting incremental Fock matrix formation ***
  7  -2301.73678287   0.0346832634  0.000173  0.000279  0.001011  0.000008
  8  -2301.73682588  -0.0000430097  0.000079  0.000232  0.000873  0.000006
  9  -2301.73683597  -0.0000100865  0.000015  0.000017  0.000128  0.000001
 10  -2301.73683635  -0.0000003819  0.000004  0.000010  0.000026  0.000000
                  ***Gradient check signals convergence***
              ***Rediagonalizing the Fockian in SOSCF/NRSCF***

               *****************************************************
               *                     SUCCESS                       *
               *           SCF CONVERGED AFTER  11 CYCLES          *
               *****************************************************


----------------
TOTAL SCF ENERGY
----------------

Total Energy       :        -2301.73683637 Eh          -62633.44354 eV

Components:
Nuclear Repulsion  :         5693.31020361 Eh          154922.84677 eV
Electronic Energy  :        -7995.04703999 Eh         -217556.29031 eV
One Electron Energy:       -14512.32406164 Eh         -394900.41407 eV
Two Electron Energy:         6517.27702165 Eh          177344.12376 eV

Virial components:
Potential Energy   :        -4602.05348853 Eh         -125228.24190 eV
Kinetic Energy     :         2300.31665215 Eh           62594.79836 eV
Virial Ratio       :            2.00061739


---------------
SCF CONVERGENCE
---------------

  Last Energy change         ...   -2.6635e-08  Tolerance :   1.0000e-08
  Last MAX-Density change    ...    7.9355e-06  Tolerance :   1.0000e-07
  Last RMS-Density change    ...    6.9020e-08  Tolerance :   5.0000e-09
  Last Orbital Gradient      ...    2.1442e-06  Tolerance :   1.0000e-05
  Last Orbital Rotation      ...    6.1501e-06  Tolerance :   1.0000e-05

             **** THE GBW FILE WAS UPDATED (input.gbw) ****
             **** DENSITY FILE WAS UPDATED (input.scfp) ****
             **** ENERGY FILE WAS UPDATED (input.en.tmp) ****
             **** THE GBW FILE WAS UPDATED (input.gbw) ****
             **** DENSITY FILE WAS UPDATED (input.scfp) ****
----------------
ORBITAL ENERGIES
----------------

  NO   OCC          E(Eh)            E(eV) 
   0   2.0000     -20.591211      -560.3153 
   1   2.0000     -20.590092      -560.2849 
   2   2.0000     -20.586552      -560.1886 
   3   2.0000     -20.573027      -559.8205 
   4   2.0000     -20.570454      -559.7505 
   5   2.0000     -20.569255      -559.7179 
   6   2.0000     -20.569068      -559.7128 
   7   2.0000     -20.563524      -559.5619 
   8   2.0000     -20.553433      -559.2874 
   9   2.0000     -20.551619      -559.2380 
  10   2.0000     -20.542988      -559.0031 
  11   2.0000     -20.535873      -558.8095 
  12   2.0000     -20.535240      -558.7923 
  13   2.0000     -20.534801      -558.7803 
  14   2.0000     -20.534160      -558.7629 
  15   2.0000     -20.533481      -558.7444 
  16   2.0000     -20.528047      -558.5966 
  17   2.0000     -20.527786      -558.5894 
  18   2.0000     -20.524028      -558.4872 
  19   2.0000     -20.508243      -558.0577 
  20   2.0000     -11.304473      -307.6104 
  21   2.0000     -11.299655      -307.4793 
  22   2.0000     -11.290371      -307.2266 
  23   2.0000     -11.283108      -307.0290 
  24   2.0000     -11.281468      -306.9844 
  25   2.0000     -11.280367      -306.9544 
  26   2.0000     -11.266963      -306.5897 
  27   2.0000     -11.264633      -306.5262 
  28   2.0000     -11.264603      -306.5254 
  29   2.0000     -11.263130      -306.4854 
  30   2.0000     -11.261331      -306.4364 
  31   2.0000     -11.257625      -306.3356 
  32   2.0000     -11.255951      -306.2900 
  33   2.0000     -11.255896      -306.2885 
  34   2.0000     -11.255303      -306.2724 
  35   2.0000     -11.245792      -306.0136 
  36   2.0000     -11.240527      -305.8703 
  37   2.0000     -11.237011      -305.7746 
  38   2.0000     -11.230941      -305.6094 
  39   2.0000     -11.228207      -305.5350 
  40   2.0000      -1.397726       -38.0341 
  41   2.0000      -1.394686       -37.9513 
  42   2.0000      -1.387229       -37.7484 
  43   2.0000      -1.386015       -37.7154 
  44   2.0000      -1.384435       -37.6724 
  45   2.0000      -1.381937       -37.6044 
  46   2.0000      -1.376851       -37.4660 
  47   2.0000      -1.374338       -37.3976 
  48   2.0000      -1.371659       -37.3247 
  49   2.0000      -1.362784       -37.0832 
  50   2.0000      -1.352921       -36.8148 
  51   2.0000      -1.352555       -36.8049 
  52   2.0000      -1.349012       -36.7085 
  53   2.0000      -1.345053       -36.6007 
  54   2.0000      -1.331565       -36.2337 
  55   2.0000      -1.330464       -36.2038 
  56   2.0000      -1.323173       -36.0054 
  57   2.0000      -1.320729       -35.9389 
  58   2.0000      -1.320313       -35.9275 
  59   2.0000      -1.311523       -35.6883 
  60   2.0000      -0.968296       -26.3487 
  61   2.0000      -0.949160       -25.8279 
  62   2.0000      -0.944162       -25.6919 
  63   2.0000      -0.938089       -25.5267 
  64   2.0000      -0.935457       -25.4551 
  65   2.0000      -0.929629       -25.2965 
  66   2.0000      -0.928632       -25.2693 
  67   2.0000      -0.925724       -25.1902 
  68   2.0000      -0.924888       -25.1675 
  69   2.0000      -0.924552       -25.1583 
  70   2.0000      -0.921525       -25.0760 
  71   2.0000      -0.921318       -25.0703 
  72   2.0000      -0.918718       -24.9996 
  73   2.0000      -0.912782       -24.8381 
  74   2.0000      -0.907638       -24.6981 
  75   2.0000      -0.900277       -24.4978 
  76   2.0000      -0.895004       -24.3543 
  77   2.0000      -0.891718       -24.2649 
  78   2.0000      -0.887816       -24.1587 
  79   2.0000      -0.877744       -23.8846 
  80   2.0000      -0.738521       -20.0962 
  81   2.0000      -0.732277       -19.9263 
  82   2.0000      -0.717937       -19.5361 
  83   2.0000      -0.715744       -19.4764 
  84   2.0000      -0.715553       -19.4712 
  85   2.0000      -0.713094       -19.4043 
  86   2.0000      -0.712152       -19.3787 
  87   2.0000      -0.703871       -19.1533 
  88   2.0000      -0.700813       -19.0701 
  89   2.0000      -0.698467       -19.0063 
  90   2.0000      -0.692947       -18.8561 
  91   2.0000      -0.689487       -18.7619 
  92   2.0000      -0.682030       -18.5590 
  93   2.0000      -0.677472       -18.4350 
  94   2.0000      -0.677326       -18.4310 
  95   2.0000      -0.670393       -18.2423 
  96   2.0000      -0.665819       -18.1178 
  97   2.0000      -0.663321       -18.0499 
  98   2.0000      -0.661392       -17.9974 
  99   2.0000      -0.660632       -17.9767 
 100   2.0000      -0.649459       -17.6727 
 101   2.0000      -0.645306       -17.5597 
 102   2.0000      -0.642513       -17.4837 
 103   2.0000      -0.641748       -17.4628 
 104   2.0000      -0.640344       -17.4247 
 105   2.0000      -0.637757       -17.3542 
 106   2.0000      -0.635628       -17.2963 
 107   2.0000      -0.630675       -17.1615 
 108   2.0000      -0.629833       -17.1386 
 109   2.0000      -0.627529       -17.0759 
 110   2.0000      -0.626379       -17.0446 
 111   2.0000      -0.623187       -16.9578 
 112   2.0000      -0.622480       -16.9386 
 113   2.0000      -0.618832       -16.8393 
 114   2.0000      -0.618515       -16.8307 
 115   2.0000      -0.615045       -16.7362 
 116   2.0000      -0.614402       -16.7187 
 117   2.0000      -0.613232       -16.6869 
 118   2.0000      -0.611632       -16.6433 
 119   2.0000      -0.607697       -16.5363 
 120   2.0000      -0.607180       -16.5222 
 121   2.0000      -0.606613       -16.5068 
 122   2.0000      -0.605533       -16.4774 
 123   2.0000      -0.603927       -16.4337 
 124   2.0000      -0.601787       -16.3754 
 125   2.0000      -0.598222       -16.2784 
 126   2.0000      -0.596333       -16.2270 
 127   2.0000      -0.595003       -16.1909 
 128   2.0000      -0.594396       -16.1743 
 129   2.0000      -0.590519       -16.0688 
 130   2.0000      -0.584319       -15.9001 
 131   2.0000      -0.583505       -15.8780 
 132   2.0000      -0.582079       -15.8392 
 133   2.0000      -0.576638       -15.6911 
 134   2.0000      -0.571496       -15.5512 
 135   2.0000      -0.570945       -15.5362 
 136   2.0000      -0.570349       -15.5200 
 137   2.0000      -0.567128       -15.4323 
 138   2.0000      -0.555415       -15.1136 
 139   2.0000      -0.550742       -14.9864 
 140   2.0000      -0.542014       -14.7490 
 141   2.0000      -0.535365       -14.5680 
 142   2.0000      -0.531055       -14.4508 
 143   2.0000      -0.521829       -14.1997 
 144   2.0000      -0.519316       -14.1313 
 145   2.0000      -0.513505       -13.9732 
 146   2.0000      -0.511720       -13.9246 
 147   2.0000      -0.508263       -13.8305 
 148   2.0000      -0.506091       -13.7714 
 149   2.0000      -0.500839       -13.6285 
 150   2.0000      -0.499730       -13.5983 
 151   2.0000      -0.494166       -13.4469 
 152   2.0000      -0.493316       -13.4238 
 153   2.0000      -0.489936       -13.3318 
 154   2.0000      -0.486935       -13.2502 
 155   2.0000      -0.483291       -13.1510 
 156   2.0000      -0.480406       -13.0725 
 157   2.0000      -0.479424       -13.0458 
 158   2.0000      -0.474972       -12.9247 
 159   2.0000      -0.474222       -12.9042 
 160   2.0000      -0.470930       -12.8147 
 161   2.0000      -0.468311       -12.7434 
 162   2.0000      -0.464836       -12.6488 
 163   2.0000      -0.462253       -12.5786 
 164   2.0000      -0.460739       -12.5374 
 165   2.0000      -0.456355       -12.4181 
 166   2.0000      -0.452705       -12.3187 
 167   2.0000      -0.449912       -12.2427 
 168   2.0000      -0.448720       -12.2103 
 169   2.0000      -0.444445       -12.0940 
 170   2.0000      -0.438627       -11.9356 
 171   2.0000      -0.436243       -11.8708 
 172   2.0000      -0.434148       -11.8138 
 173   2.0000      -0.431903       -11.7527 
 174   2.0000      -0.430160       -11.7052 
 175   2.0000      -0.427077       -11.6214 
 176   2.0000      -0.421686       -11.4747 
 177   2.0000      -0.421124       -11.4594 
 178   2.0000      -0.415565       -11.3081 
 179   2.0000      -0.401113       -10.9148 
 180   0.0000       0.091034         2.4772 
 181   0.0000       0.102773         2.7966 
 182   0.0000       0.108371         2.9489 
 183   0.0000       0.111872         3.0442 
 184   0.0000       0.115134         3.1330 
 185   0.0000       0.122579         3.3356 
 186   0.0000       0.128872         3.5068 
 187   0.0000       0.133338         3.6283 
 188   0.0000       0.136490         3.7141 
 189   0.0000       0.139661         3.8004 
 190   0.0000       0.144345         3.9278 
 191   0.0000       0.151079         4.1111 
 192   0.0000       0.152119         4.1394 
 193   0.0000       0.156811         4.2670 
 194   0.0000       0.158931         4.3247 
 195   0.0000       0.163232         4.4418 
 196   0.0000       0.165429         4.5015 
 197   0.0000       0.169699         4.6177 
 198   0.0000       0.172158         4.6846 
 199   0.0000       0.173159         4.7119 
 200   0.0000       0.177166         4.8209 
 201   0.0000       0.181221         4.9313 
 202   0.0000       0.183778         5.0008 
 203   0.0000       0.187764         5.1093 
 204   0.0000       0.189855         5.1662 
 205   0.0000       0.192496         5.2381 
 206   0.0000       0.195067         5.3080 
 207   0.0000       0.196573         5.3490 
 208   0.0000       0.197358         5.3704 
 209   0.0000       0.200450         5.4545 
 210   0.0000       0.200929         5.4676 
 211   0.0000       0.203328         5.5328 
 212   0.0000       0.205080         5.5805 
 213   0.0000       0.208552         5.6750 
 214   0.0000       0.209560         5.7024 
 215   0.0000       0.211069         5.7435 
 216   0.0000       0.213553         5.8111 
 217   0.0000       0.214920         5.8483 
 218   0.0000       0.215754         5.8710 
 219   0.0000       0.218699         5.9511 
 220   0.0000       0.219849         5.9824 
 221   0.0000       0.222943         6.0666 
 222   0.0000       0.226295         6.1578 
 223   0.0000       0.228189         6.2093 
 224   0.0000       0.229771         6.2524 
 225   0.0000       0.230915         6.2835 
 226   0.0000       0.233109         6.3432 
 227   0.0000       0.235010         6.3949 
 228   0.0000       0.236579         6.4376 
 229   0.0000       0.237020         6.4496 
 230   0.0000       0.239696         6.5225 
 231   0.0000       0.242392         6.5958 
 232   0.0000       0.243214         6.6182 
 233   0.0000       0.244253         6.6465 
 234   0.0000       0.245144         6.6707 
 235   0.0000       0.246939         6.7196 
 236   0.0000       0.247210         6.7269 
 237   0.0000       0.250910         6.8276 
 238   0.0000       0.253092         6.8870 
 239   0.0000       0.255634         6.9561 
 240   0.0000       0.257422         7.0048 
 241   0.0000       0.260126         7.0784 
 242   0.0000       0.262464         7.1420 
 243   0.0000       0.263843         7.1795 
 244   0.0000       0.267180         7.2703 
 245   0.0000       0.269607         7.3364 
 246   0.0000       0.271711         7.3936 
 247   0.0000       0.274944         7.4816 
 248   0.0000       0.276042         7.5115 
 249   0.0000       0.278059         7.5664 
 250   0.0000       0.280264         7.6264 
 251   0.0000       0.281742         7.6666 
 252   0.0000       0.286944         7.8081 
 253   0.0000       0.291220         7.9245 
 254   0.0000       0.293939         7.9985 
 255   0.0000       0.296506         8.0683 
 256   0.0000       0.299583         8.1521 
 257   0.0000       0.300388         8.1740 
 258   0.0000       0.301865         8.2142 
 259   0.0000       0.303849         8.2682 
 260   0.0000       0.308532         8.3956 
 261   0.0000       0.311233         8.4691 
 262   0.0000       0.311990         8.4897 
 263   0.0000       0.319005         8.6806 
 264   0.0000       0.319707         8.6997 
 265   0.0000       0.320817         8.7299 
 266   0.0000       0.321675         8.7532 
 267   0.0000       0.324652         8.8342 
 268   0.0000       0.327575         8.9138 
 269   0.0000       0.330104         8.9826 
 270   0.0000       0.331529         9.0214 
 271   0.0000       0.334104         9.0914 
 272   0.0000       0.337168         9.1748 
 273   0.0000       0.342126         9.3097 
 274   0.0000       0.344098         9.3634 
 275   0.0000       0.345814         9.4101 
 276   0.0000       0.349671         9.5150 
 277   0.0000       0.351179         9.5561 
 278   0.0000       0.353503         9.6193 
 279   0.0000       0.354186         9.6379 
 280   0.0000       0.357041         9.7156 
 281   0.0000       0.358498         9.7552 
 282   0.0000       0.361243         9.8299 
 283   0.0000       0.363296         9.8858 
 284   0.0000       0.364668         9.9231 
 285   0.0000       0.368653        10.0316 
 286   0.0000       0.374739        10.1972 
 287   0.0000       0.377031        10.2595 
 288   0.0000       0.379861        10.3365 
 289   0.0000       0.383336        10.4311 
 290   0.0000       0.385643        10.4939 
 291   0.0000       0.387329        10.5398 
 292   0.0000       0.391983        10.6664 
 293   0.0000       0.392881        10.6908 
 294   0.0000       0.394703        10.7404 
 295   0.0000       0.399376        10.8676 
 296   0.0000       0.401196        10.9171 
 297   0.0000       0.405581        11.0364 
 298   0.0000       0.407653        11.0928 
 299   0.0000       0.412010        11.2114 
 300   0.0000       0.417251        11.3540 
 301   0.0000       0.422233        11.4895 
 302   0.0000       0.424891        11.5619 
 303   0.0000       0.429889        11.6979 
 304   0.0000       0.435169        11.8416 
 305   0.0000       0.436936        11.8896 
 306   0.0000       0.441968        12.0266 
 307   0.0000       0.442649        12.0451 
 308   0.0000       0.447223        12.1696 
 309   0.0000       0.449653        12.2357 
 310   0.0000       0.456658        12.4263 
 311   0.0000       0.458342        12.4721 
 312   0.0000       0.460744        12.5375 
 313   0.0000       0.464076        12.6281 
 314   0.0000       0.467943        12.7334 
 315   0.0000       0.469225        12.7683 
 316   0.0000       0.471909        12.8413 
 317   0.0000       0.479361        13.0441 
 318   0.0000       0.480539        13.0761 
 319   0.0000       0.483850        13.1662 
 320   0.0000       0.488989        13.3061 
 321   0.0000       0.492573        13.4036 
 322   0.0000       0.495196        13.4750 
 323   0.0000       0.497773        13.5451 
 324   0.0000       0.499789        13.6000 
 325   0.0000       0.500269        13.6130 
 326   0.0000       0.503708        13.7066 
 327   0.0000       0.505288        13.7496 
 328   0.0000       0.510196        13.8831 
 329   0.0000       0.513294        13.9675 
 330   0.0000       0.516125        14.0445 
 331   0.0000       0.520970        14.1763 
 332   0.0000       0.523532        14.2460 
 333   0.0000       0.526160        14.3175 
 334   0.0000       0.526945        14.3389 
 335   0.0000       0.533378        14.5140 
 336   0.0000       0.535072        14.5600 
 337   0.0000       0.537324        14.6213 
 338   0.0000       0.541612        14.7380 
 339   0.0000       0.547004        14.8847 
 340   0.0000       0.548000        14.9118 
 341   0.0000       0.550093        14.9688 
 342   0.0000       0.554712        15.0945 
 343   0.0000       0.555348        15.1118 
 344   0.0000       0.558358        15.1937 
 345   0.0000       0.560714        15.2578 
 346   0.0000       0.562403        15.3038 
 347   0.0000       0.564979        15.3739 
 348   0.0000       0.567072        15.4308 
 349   0.0000       0.569890        15.5075 
 350   0.0000       0.572074        15.5669 
 351   0.0000       0.575502        15.6602 
 352   0.0000       0.576838        15.6966 
 353   0.0000       0.580768        15.8035 
 354   0.0000       0.584556        15.9066 
 355   0.0000       0.586722        15.9655 
 356   0.0000       0.589411        16.0387 
 357   0.0000       0.589933        16.0529 
 358   0.0000       0.594249        16.1703 
 359   0.0000       0.596666        16.2361 
 360   0.0000       0.598428        16.2841 
 361   0.0000       0.601251        16.3609 
 362   0.0000       0.602031        16.3821 
 363   0.0000       0.604458        16.4481 
 364   0.0000       0.607292        16.5253 
 365   0.0000       0.608142        16.5484 
 366   0.0000       0.609238        16.5782 
 367   0.0000       0.612835        16.6761 
 368   0.0000       0.614078        16.7099 
 369   0.0000       0.618067        16.8185 
 370   0.0000       0.619254        16.8508 
 371   0.0000       0.620798        16.8928 
 372   0.0000       0.623673        16.9710 
 373   0.0000       0.624009        16.9801 
 374   0.0000       0.629229        17.1222 
 375   0.0000       0.630229        17.1494 
 376   0.0000       0.631511        17.1843 
 377   0.0000       0.632352        17.2072 
 378   0.0000       0.634804        17.2739 
 379   0.0000       0.637032        17.3345 
 380   0.0000       0.637640        17.3511 
 381   0.0000       0.639952        17.4140 
 382   0.0000       0.641814        17.4646 
 383   0.0000       0.643676        17.5153 
 384   0.0000       0.645066        17.5531 
 385   0.0000       0.647256        17.6127 
 386   0.0000       0.648621        17.6499 
 387   0.0000       0.651128        17.7181 
 388   0.0000       0.653034        17.7700 
 389   0.0000       0.656024        17.8513 
 390   0.0000       0.658040        17.9062 
 391   0.0000       0.658941        17.9307 
 392   0.0000       0.660523        17.9738 
 393   0.0000       0.663013        18.0415 
 394   0.0000       0.664552        18.0834 
 395   0.0000       0.666892        18.1471 
 396   0.0000       0.670033        18.2325 
 397   0.0000       0.672235        18.2925 
 398   0.0000       0.672453        18.2984 
 399   0.0000       0.673655        18.3311 
 400   0.0000       0.675679        18.3862 
[...]
  VA   - Mayer's total valence
  BVA  - Mayer's bonded valence
  FA   - Mayer's free valence

  ATOM       NA         ZA         QA         VA         BVA        FA
  0 O      8.6030     8.0000    -0.6030     1.7343     1.7343     0.0000
  1 H      0.6291     1.0000     0.3709     0.8720     0.8720     0.0000
  2 C      6.0420     6.0000    -0.0420     3.8561     3.8561    -0.0000
  3 H      0.9125     1.0000     0.0875     0.9647     0.9647    -0.0000
  4 H      0.9005     1.0000     0.0995     0.9725     0.9725     0.0000
  5 H      0.9083     1.0000     0.0917     0.9763     0.9763     0.0000
  6 O      8.6702     8.0000    -0.6702     1.6442     1.6442    -0.0000
  7 H      0.5969     1.0000     0.4031     0.8706     0.8706     0.0000
  8 C      6.1162     6.0000    -0.1162     3.8328     3.8328    -0.0000
  9 H      0.8767     1.0000     0.1233     0.9590     0.9590    -0.0000
 10 H      0.8769     1.0000     0.1231     0.9726     0.9726    -0.0000
 11 H      0.8853     1.0000     0.1147     0.9502     0.9502    -0.0000
 12 O      8.5964     8.0000    -0.5964     1.7317     1.7317     0.0000
 13 H      0.6430     1.0000     0.3570     0.8914     0.8914    -0.0000
 14 C      6.0319     6.0000    -0.0319     3.8584     3.8584    -0.0000
 15 H      0.9057     1.0000     0.0943     0.9861     0.9861     0.0000
 16 H      0.9243     1.0000     0.0757     0.9511     0.9511     0.0000
 17 H      0.9075     1.0000     0.0925     0.9733     0.9733     0.0000
 18 O      8.5270     8.0000    -0.5270     1.8008     1.8008    -0.0000
 19 H      0.6711     1.0000     0.3289     0.9022     0.9022     0.0000
 20 C      6.0425     6.0000    -0.0425     3.9318     3.9318    -0.0000
 21 H      0.9205     1.0000     0.0795     0.9529     0.9529    -0.0000
 22 H      0.9322     1.0000     0.0678     0.9653     0.9653    -0.0000
 23 H      0.9065     1.0000     0.0935     0.9489     0.9489    -0.0000
 24 O      8.5782     8.0000    -0.5782     1.7685     1.7685     0.0000
 25 H      0.6408     1.0000     0.3592     0.8901     0.8901    -0.0000
 26 C      6.0667     6.0000    -0.0667     3.9092     3.9092    -0.0000
 27 H      0.9117     1.0000     0.0883     0.9624     0.9624     0.0000
 28 H      0.9217     1.0000     0.0783     0.9480     0.9480    -0.0000
 29 H      0.8867     1.0000     0.1133     0.9626     0.9626     0.0000
 30 O      8.6060     8.0000    -0.6060     1.7118     1.7118    -0.0000
 31 H      0.6233     1.0000     0.3767     0.8844     0.8844     0.0000
 32 C      6.0884     6.0000    -0.0884     3.8631     3.8631    -0.0000
 33 H      0.8875     1.0000     0.1125     0.9613     0.9613    -0.0000
 34 H      0.8915     1.0000     0.1085     0.9592     0.9592    -0.0000
 35 H      0.8956     1.0000     0.1044     0.9660     0.9660    -0.0000
 36 O      8.5679     8.0000    -0.5679     1.7751     1.7751    -0.0000
 37 H      0.6739     1.0000     0.3261     0.9029     0.9029    -0.0000
 38 C      6.0516     6.0000    -0.0516     3.8271     3.8271     0.0000
 39 H      0.8697     1.0000     0.1303     0.9896     0.9896     0.0000
 40 H      0.8863     1.0000     0.1137     0.9746     0.9746     0.0000
 41 H      0.9364     1.0000     0.0636     0.9665     0.9665     0.0000
 42 O      8.5648     8.0000    -0.5648     1.7950     1.7950     0.0000
 43 H      0.6751     1.0000     0.3249     0.9077     0.9077     0.0000
 44 C      6.0689     6.0000    -0.0689     3.8706     3.8706    -0.0000
 45 H      0.9061     1.0000     0.0939     0.9611     0.9611     0.0000
 46 H      0.8771     1.0000     0.1229     0.9614     0.9614    -0.0000
 47 H      0.9159     1.0000     0.0841     0.9630     0.9630    -0.0000
 48 O      8.5879     8.0000    -0.5879     1.7467     1.7467     0.0000
 49 H      0.6318     1.0000     0.3682     0.8819     0.8819     0.0000
 50 C      6.0554     6.0000    -0.0554     3.8957     3.8957    -0.0000
 51 H      0.9052     1.0000     0.0948     0.9646     0.9646     0.0000
 52 H      0.9173     1.0000     0.0827     0.9660     0.9660    -0.0000
 53 H      0.9032     1.0000     0.0968     0.9706     0.9706    -0.0000
 54 O      8.5600     8.0000    -0.5600     1.7815     1.7815     0.0000
 55 H      0.6496     1.0000     0.3504     0.8998     0.8998     0.0000
 56 C      6.0730     6.0000    -0.0730     3.9182     3.9182    -0.0000
 57 H      0.9103     1.0000     0.0897     0.9654     0.9654    -0.0000
 58 H      0.9075     1.0000     0.0925     0.9567     0.9567    -0.0000
 59 H      0.9069     1.0000     0.0931     0.9738     0.9738    -0.0000
 60 O      8.5472     8.0000    -0.5472     1.7904     1.7904     0.0000
 61 H      0.6832     1.0000     0.3168     0.9129     0.9129     0.0000
 62 C      6.0693     6.0000    -0.0693     3.8921     3.8921     0.0000
 63 H      0.8943     1.0000     0.1057     0.9654     0.9654    -0.0000
 64 H      0.8928     1.0000     0.1072     0.9576     0.9576    -0.0000
 65 H      0.9155     1.0000     0.0845     0.9606     0.9606    -0.0000
 66 O      8.5271     8.0000    -0.5271     1.7964     1.7964    -0.0000
 67 H      0.6836     1.0000     0.3164     0.9086     0.9086    -0.0000
 68 C      6.0869     6.0000    -0.0869     3.8967     3.8967     0.0000
 69 H      0.9117     1.0000     0.0883     0.9679     0.9679     0.0000
 70 H      0.9115     1.0000     0.0885     0.9692     0.9692     0.0000
 71 H      0.8787     1.0000     0.1213     0.9452     0.9452     0.0000
 72 O      8.5967     8.0000    -0.5967     1.7625     1.7625    -0.0000
 73 H      0.6362     1.0000     0.3638     0.8902     0.8902    -0.0000
 74 C      6.1374     6.0000    -0.1374     3.8351     3.8351     0.0000
 75 H      0.8558     1.0000     0.1442     0.9639     0.9639     0.0000
 76 H      0.8740     1.0000     0.1260     0.9623     0.9623     0.0000
 77 H      0.8921     1.0000     0.1079     0.9598     0.9598     0.0000
 78 O      8.5647     8.0000    -0.5647     1.7661     1.7661     0.0000
 79 H      0.6597     1.0000     0.3403     0.9068     0.9068     0.0000
 80 C      6.0111     6.0000    -0.0111     3.8923     3.8923     0.0000
 81 H      0.8984     1.0000     0.1016     0.9586     0.9586     0.0000
 82 H      0.9312     1.0000     0.0688     0.9580     0.9580     0.0000
 83 H      0.9634     1.0000     0.0366     0.9996     0.9996    -0.0000
 84 O      8.5394     8.0000    -0.5394     1.7881     1.7881     0.0000
 85 H      0.6750     1.0000     0.3250     0.9079     0.9079     0.0000
 86 C      6.0481     6.0000    -0.0481     3.9093     3.9093    -0.0000
 87 H      0.9005     1.0000     0.0995     0.9544     0.9544     0.0000
 88 H      0.9388     1.0000     0.0612     0.9629     0.9629     0.0000
 89 H      0.9039     1.0000     0.0961     0.9701     0.9701    -0.0000
 90 O      8.5822     8.0000    -0.5822     1.7231     1.7231    -0.0000
 91 H      0.6574     1.0000     0.3426     0.8940     0.8940    -0.0000
 92 C      6.0683     6.0000    -0.0683     3.8453     3.8453    -0.0000
 93 H      0.8860     1.0000     0.1140     0.9667     0.9667    -0.0000
 94 H      0.8914     1.0000     0.1086     0.9673     0.9673    -0.0000
 95 H      0.9053     1.0000     0.0947     0.9698     0.9698    -0.0000
 96 O      8.5791     8.0000    -0.5791     1.7424     1.7424    -0.0000
 97 H      0.6244     1.0000     0.3756     0.8862     0.8862     0.0000
 98 C      6.0336     6.0000    -0.0336     3.9202     3.9202    -0.0000
 99 H      0.9075     1.0000     0.0925     0.9671     0.9671    -0.0000
100 H      0.9402     1.0000     0.0598     0.9590     0.9590    -0.0000
101 H      0.9248     1.0000     0.0752     0.9620     0.9620    -0.0000
102 O      8.5959     8.0000    -0.5959     1.7541     1.7541    -0.0000
103 H      0.6295     1.0000     0.3705     0.8807     0.8807     0.0000
104 C      6.0795     6.0000    -0.0795     3.8672     3.8672     0.0000
105 H      0.8864     1.0000     0.1136     0.9605     0.9605     0.0000
106 H      0.9102     1.0000     0.0898     0.9609     0.9609     0.0000
107 H      0.8818     1.0000     0.1182     0.9658     0.9658     0.0000
108 O      8.5582     8.0000    -0.5582     1.8059     1.8059    -0.0000
109 H      0.6427     1.0000     0.3573     0.8815     0.8815    -0.0000
110 C      6.0947     6.0000    -0.0947     3.8903     3.8903    -0.0000
111 H      0.9016     1.0000     0.0984     0.9605     0.9605    -0.0000
112 H      0.8939     1.0000     0.1061     0.9573     0.9573     0.0000
113 H      0.8783     1.0000     0.1217     0.9595     0.9595    -0.0000
114 O      8.5855     8.0000    -0.5855     1.7532     1.7532     0.0000
115 H      0.6483     1.0000     0.3517     0.8942     0.8942    -0.0000
116 C      6.0982     6.0000    -0.0982     3.8651     3.8651    -0.0000
117 H      0.8782     1.0000     0.1218     0.9709     0.9709    -0.0000
118 H      0.8915     1.0000     0.1085     0.9720     0.9720    -0.0000
119 H      0.8909     1.0000     0.1091     0.9591     0.9591    -0.0000

  Mayer bond orders larger than 0.100000
B(  0-O ,  1-H ) :   0.8568 B(  0-O ,  2-C ) :   0.8860 B(  2-C ,  3-H ) :   0.9849 
B(  2-C ,  4-H ) :   0.9929 B(  2-C ,  5-H ) :   0.9888 B(  6-O ,  7-H ) :   0.7877 
B(  6-O ,  8-C ) :   0.8671 B(  8-C ,  9-H ) :   0.9915 B(  8-C , 10-H ) :   0.9809 
B(  8-C , 11-H ) :   0.9835 B( 12-O , 13-H ) :   0.8521 B( 12-O , 14-C ) :   0.9037 
B( 14-C , 15-H ) :   0.9774 B( 14-C , 16-H ) :   0.9837 B( 14-C , 17-H ) :   1.0070 
B( 18-O , 19-H ) :   0.8938 B( 18-O , 20-C ) :   0.9490 B( 20-C , 21-H ) :   0.9861 
B( 20-C , 22-H ) :   1.0036 B( 20-C , 23-H ) :   0.9920 B( 24-O , 25-H ) :   0.8655 
B( 24-O , 26-C ) :   0.9342 B( 26-C , 27-H ) :   0.9895 B( 26-C , 28-H ) :   0.9937 
B( 26-C , 29-H ) :   0.9903 B( 30-O , 31-H ) :   0.8099 B( 30-O , 32-C ) :   0.8908 
B( 32-C , 33-H ) :   0.9837 B( 32-C , 34-H ) :   0.9885 B( 32-C , 35-H ) :   0.9928 
B( 36-O , 37-H ) :   0.8895 B( 36-O , 38-C ) :   0.8736 B( 38-C , 39-H ) :   0.9845 
B( 38-C , 40-H ) :   0.9960 B( 38-C , 41-H ) :   0.9876 B( 42-O , 43-H ) :   0.8917 
B( 42-O , 44-C ) :   0.9145 B( 44-C , 45-H ) :   0.9807 B( 44-C , 46-H ) :   0.9893 
B( 44-C , 47-H ) :   0.9931 B( 48-O , 49-H ) :   0.8528 B( 48-O , 50-C ) :   0.9196 
B( 50-C , 51-H ) :   0.9858 B( 50-C , 52-H ) :   0.9894 B( 50-C , 53-H ) :   1.0022 
B( 54-O , 55-H ) :   0.8742 B( 54-O , 56-C ) :   0.9351 B( 56-C , 57-H ) :   0.9882 
B( 56-C , 58-H ) :   0.9938 B( 56-C , 59-H ) :   0.9968 B( 60-O , 61-H ) :   0.9054 
B( 60-O , 62-C ) :   0.9196 B( 62-C , 63-H ) :   0.9843 B( 62-C , 64-H ) :   0.9853 
B( 62-C , 65-H ) :   0.9960 B( 66-O , 67-H ) :   0.9044 B( 66-O , 68-C ) :   0.9230 
B( 68-C , 69-H ) :   0.9912 B( 68-C , 70-H ) :   1.0005 B( 68-C , 71-H ) :   0.9802 
B( 72-O , 73-H ) :   0.8729 B( 72-O , 74-C ) :   0.8859 B( 74-C , 75-H ) :   0.9804 
B( 74-C , 76-H ) :   0.9755 B( 74-C , 77-H ) :   0.9881 B( 78-O , 79-H ) :   0.8656 
B( 78-O , 80-C ) :   0.9273 B( 80-C , 81-H ) :   0.9882 B( 80-C , 82-H ) :   0.9920 
B( 80-C , 83-H ) :   1.0009 B( 84-O , 85-H ) :   0.8970 B( 84-O , 86-C ) :   0.9323 
B( 86-C , 87-H ) :   0.9811 B( 86-C , 88-H ) :   0.9902 B( 86-C , 89-H ) :   1.0023 
B( 90-O , 91-H ) :   0.8857 B( 90-O , 92-C ) :   0.8628 B( 92-C , 93-H ) :   0.9865 
B( 92-C , 94-H ) :   0.9895 B( 92-C , 95-H ) :   0.9947 B( 96-O , 97-H ) :   0.8396 
B( 96-O , 98-C ) :   0.9382 B( 98-C , 99-H ) :   0.9925 B( 98-C ,100-H ) :   0.9990 
B( 98-C ,101-H ) :   0.9959 B(102-O ,103-H ) :   0.8585 B(102-O ,104-C ) :   0.8913 
B(104-C ,105-H ) :   0.9901 B(104-C ,106-H ) :   0.9944 B(104-C ,107-H ) :   0.9856 
B(108-O ,109-H ) :   0.8699 B(108-O ,110-C ) :   0.9090 B(110-C ,111-H ) :   0.9885 
B(110-C ,112-H ) :   0.9865 B(110-C ,113-H ) :   0.9943 B(114-O ,115-H ) :   0.8790 
B(114-O ,116-C ) :   0.8900 B(116-C ,117-H ) :   0.9868 B(116-C ,118-H ) :   1.0014 
B(116-C ,119-H ) :   0.9833 

-------
TIMINGS
-------

Total SCF time: 0 days 0 hours 12 min 21 sec 

Total time                  ....     741.558 sec
Sum of individual times     ....     736.840 sec  ( 99.4%)

Fock matrix formation       ....     722.783 sec  ( 97.5%)
Diagonalization             ....       3.662 sec  (  0.5%)
Density matrix formation    ....       0.467 sec  (  0.1%)
Population analysis         ....       0.879 sec  (  0.1%)
Initial guess               ....       1.681 sec  (  0.2%)
Orbital Transformation      ....       0.000 sec  (  0.0%)
Orbital Orthonormalization  ....       0.000 sec  (  0.0%)
DIIS solution               ....       3.807 sec  (  0.5%)
SOSCF solution              ....       2.862 sec  (  0.4%)


           ************************************************************
           *        Program running with 24 parallel MPI-processes    *
           *              working on a common directory               *
           ************************************************************

------------------------------------------------------------------------------
                                ORCA  MP2 
------------------------------------------------------------------------------

Freezing NCore=80 chemical core electrons

-------------
RI-MP2 ENERGY
-------------
Dimension of the basis                    ... 1720
Memory devoted to MP2                     ... 8000 MB   
Data format for buffers                   ... DOUBLE
Compression type for matrix containers    ... UNCOMPRESSED
Overall scaling of the MP2 energy         ...   1.000e+00
Calculating two index integrals           ... done (    0.116 sec)
Cholesky decomposition of V**-1           ... done (    1.791 sec)

-----------------
RI-TRANSFORMATION (AUX index driven)
-----------------

Dimension of the orbital-basis         ... 1720
Dimension of the aux-basis             ... 4240
Transformation of internal/external MOs...   40- 179 to  180-1719
Number Format for Storage              ... Double (8 Byte)
Integral mode                          ... Direct

First Phase: integral generation and transformation of MO indices
  Aux angular momentum 0               ... done (    1.886 sec)
  Aux angular momentum 1               ... done (    3.006 sec)
  Aux angular momentum 2               ... done (    2.886 sec)
  Aux angular momentum 3               ... done (    1.853 sec)
  Aux angular momentum 4               ... done (    0.950 sec)
Closing buffer VIA ( 6.81 GB; CompressionRatio= 1.00)
  Phase 1 completed in    11.043 sec
Second Phase: sorting and transformation of aux index

IA-Transformation
Memory available                       ... 7635 MB 
Max. # MO pairs treated in a batch     ... 6    
# of internal orbitals                 ... 140
# batches for internal orbitals        ... 1
Closing buffer IAV ( 0.29 GB; CompressionRatio= 1.00)
(ia|v) transformation done in     8.775 sec

  Phase 2 completed in    18.966 sec
RI-Integral transformation completed in    30.021 sec
Opening buffers                              ... done

Starting loop over batches of integrals:

Operator 0  - window                       ... ( 40-179)x(180-1719)
Operator 0  - Memory available             ...  8000 MB
Operator 0  - Memory needed per MO         ...  49.8 MB
Operator 0  - Number of orbitals per batch ... 6
Operator 0  - Number of batches            ... 1

OPERATOR  0   PASS   0:  MOs    40 ...   45 +   46 ...   51 +   52 ...   57 +   58 ...   63
                            +   64 ...   69 +   70 ...   75 +   76 ...   81 +   82 ...   87
                            +   88 ...   93 +   94 ...   99 +  100 ...  105 +  106 ...  111
                            +  112 ...  117 +  118 ...  123 +  124 ...  129 +  130 ...  135
                            +  136 ...  141 +  142 ...  147 +  148 ...  153 +  154 ...  159
                            +  160 ...  165 +  166 ...  171 +  172 ...  177 +  178 ...  179
  Reading integrals       ... ok
  Internal MO  42
  Internal MO  45
Time spent in pair loops =     8.481 sec
Deleting buffer (Ka|jb)[aa] ...done

-----------------------------------------------
 RI-MP2 CORRELATION ENERGY:     -8.404293148 Eh
-----------------------------------------------


-------
TIMINGS
-------

Total time                :  331.047 sec
Integral trafo            :   30.040 sec (  9.1%)
I/O of integrals          :    0.337 sec (  0.1%)
K(i,j) Operators          :    7.289 sec (  2.2%)
T(i,j) pair energies      :    0.558 sec (  0.2%)
V-calculation             :    0.116 sec (  0.0%)
V**(-1/2)                 :    1.791 sec (  0.5%)
Gamma(ia|P)               :    0.000 sec (  0.0%)
Gamma-Trafo               :    0.000 sec (  0.0%)
D(virtual)                :    0.000 sec (  0.0%)
D(internal)               :    0.000 sec (  0.0%)
W(virtual)                :    0.000 sec (  0.0%)
W(internal)               :    0.000 sec (  0.0%)
L(virtual)                :    0.000 sec (  0.0%)
L(internal)               :    0.000 sec (  0.0%)
G(D)                      :    0.000 sec (  0.0%)
G(Z)                      :    0.000 sec (  0.0%)
Z-Vector Solution         :    0.000 sec (  0.0%)
3-Index Derivative        :    0.000 sec (  0.0%)
2-Index Derivative        :    0.000 sec (  0.0%)
Separable Gradient        :    0.000 sec (  0.0%)


---------------------------------------
MP2 TOTAL ENERGY:    -2310.141129522 Eh
---------------------------------------

-------------------------   --------------------
FINAL SINGLE POINT ENERGY     -2310.141129521872
-------------------------   --------------------


                            ***************************************
                            *     ORCA property calculations      *
                            ***************************************


  WARNING: The energy has been calculated at the MP2 level but the densities
           used in the property calculations are still SCF densities
           MP2 response densities have not been calculated 
           use %mp2 Density relaxed end
           or  %mp2 Density unrelaxed end

                                    ---------------------
                                    Active property flags
                                    ---------------------
   (+) Dipole Moment


------------------------------------------------------------------------------
                       ORCA ELECTRIC PROPERTIES CALCULATION
------------------------------------------------------------------------------

Dipole Moment Calculation                       ... on
Quadrupole Moment Calculation                   ... off
Polarizability Calculation                      ... off
GBWName                                         ... input.gbw
Electron density file                           ... input.scfp
The origin for moment calculation is the CENTER OF MASS  = ( 2.235223, -0.658776 -1.116633)

-------------
DIPOLE MOMENT
-------------
                                X             Y             Z
Electronic contribution:     -3.46794       4.88836      -1.56852
Nuclear contribution   :      4.46199      -9.51896       2.56555
                        -----------------------------------------
Total Dipole Moment    :      0.99405      -4.63061       0.99703
                        -----------------------------------------
Magnitude (a.u.)       :      4.83991
Magnitude (Debye)      :     12.30207



--------------------
Rotational spectrum 
--------------------
 
Rotational constants in cm-1:     0.001526     0.001278     0.001143 
Rotational constants in MHz :    45.761137    38.301959    34.263271 

 Dipole components along the rotational axes: 
x,y,z [a.u.] :     1.326539    -4.643510     0.320635 
x,y,z [Debye]:     3.371794   -11.802865     0.814989 

 

Timings for individual modules:

Sum of individual times         ...     1086.707 sec (=  18.112 min)
GTO integral calculation        ...        7.362 sec (=   0.123 min)   0.7 %
SCF iterations                  ...      745.061 sec (=  12.418 min)  68.6 %
MP2 module                      ...      334.284 sec (=   5.571 min)  30.8 %
                             ****ORCA TERMINATED NORMALLY****
TOTAL RUN TIME: 0 days 0 hours 18 minutes 10 seconds 995 msec
