
                                 *****************
                                 * O   R   C   A *
                                 *****************

           --- An Ab Initio, DFT and Semiempirical electronic structure package ---

                  #######################################################
                  #                        -***-                        #
                  #          Department of theory and spectroscopy      #
                  #               Directorship: Frank Neese             #
                  #        Max Planck Institute fuer Kohlenforschung    #
                  #                Kaiser Wilhelm Platz 1               #
                  #                 D-45470 Muelheim/Ruhr               #
                  #                      Germany                        #
                  #                                                     #
                  #                  All rights reserved                #
                  #                        -***-                        #
                  #######################################################


                         Program Version 4.2.0 -  RELEASE  -


 With contributions from (in alphabetic order):
   Daniel Aravena         : Magnetic Suceptibility
   Michael Atanasov       : Ab Initio Ligand Field Theory (pilot matlab implementation)
   Alexander A. Auer      : GIAO ZORA, VPT2
   Ute Becker             : Parallelization
   Giovanni Bistoni       : ED, misc. LED, open-shell LED, HFLED
   Martin Brehm           : Molecular dynamics
   Dmytro Bykov           : SCF Hessian
   Vijay G. Chilkuri      : MRCI spin determinant printing, contributions to CSF-ICE
   Dipayan Datta          : RHF DLPNO-CCSD density
   Achintya Kumar Dutta   : EOM-CC, STEOM-CC
   Dmitry Ganyushin       : Spin-Orbit,Spin-Spin,Magnetic field MRCI
   Miquel Garcia          : C-PCM Hessian, Gaussian charge scheme
   Yang Guo               : DLPNO-NEVPT2, CIM, IAO-localization
   Andreas Hansen         : Spin unrestricted coupled pair/coupled cluster methods
   Benjamin Helmich-Paris : CASSCF linear response (MC-RPA)
   Lee Huntington         : MR-EOM, pCC
   Robert Izsak           : Overlap fitted RIJCOSX, COSX-SCS-MP3, EOM
   Christian Kollmar      : KDIIS, OOCD, Brueckner-CCSD(T), CCSD density
   Simone Kossmann        : Meta GGA functionals, TD-DFT gradient, OOMP2, MP2 Hessian
   Martin Krupicka        : AUTO-CI
   Lucas Lang             : DCDCAS
   Dagmar Lenk            : GEPOL surface, SMD
   Dimitrios Liakos       : Extrapolation schemes; Compound Job, initial MDCI parallelization
   Dimitrios Manganas     : Further ROCIS development; embedding schemes
   Dimitrios Pantazis     : SARC Basis sets
   Taras Petrenko         : DFT Hessian,TD-DFT gradient, ASA, ECA, R-Raman, ABS, FL, XAS/XES, NRVS
   Peter Pinski           : DLPNO-MP2, DLPNO-MP2 Gradient
   Christoph Reimann      : Effective Core Potentials
   Marius Retegan         : Local ZFS, SOC
   Christoph Riplinger    : Optimizer, TS searches, QM/MM, DLPNO-CCSD(T), (RO)-DLPNO pert. Triples
   Tobias Risthaus        : Range-separated hybrids, TD-DFT gradient, RPA, STAB
   Michael Roemelt        : Original ROCIS implementation
   Masaaki Saitow         : Open-shell DLPNO-CCSD energy and density
   Barbara Sandhoefer     : DKH picture change effects
   Avijit Sen             : IP-ROCIS
   Kantharuban Sivalingam : CASSCF convergence, NEVPT2, FIC-MRCI
   Bernardo de Souza      : ESD, SOC TD-DFT
   Georgi Stoychev        : AutoAux, RI-MP2 NMR
   Willem Van den Heuvel  : Paramagnetic NMR
   Boris Wezisla          : Elementary symmetry handling
   Frank Wennmohs         : Technical directorship


 We gratefully acknowledge several colleagues who have allowed us to
 interface, adapt or use parts of their codes:
   Stefan Grimme, W. Hujo, H. Kruse,             : VdW corrections, initial TS optimization,
                  C. Bannwarth                     DFT functionals, gCP, sTDA/sTD-DF
   Ed Valeev, F. Pavosevic, A. Kumar             : LibInt (2-el integral package), F12 methods
   Garnet Chan, S. Sharma, J. Yang, R. Olivares  : DMRG
   Ulf Ekstrom                                   : XCFun DFT Library
   Mihaly Kallay                                 : mrcc  (arbitrary order and MRCC methods)
   Andreas Klamt, Michael Diedenhofen            : otool_cosmo (COSMO solvation model)
   Jiri Pittner, Ondrej Demel                    : Mk-CCSD
   Frank Weinhold                                : gennbo (NPA and NBO analysis)
   Christopher J. Cramer and Donald G. Truhlar   : smd solvation model
   Lars Goerigk                                  : TD-DFT with DH, B97 family of functionals
   V. Asgeirsson, H. Jonsson                     : NEB implementation
   FAccTs GmbH                                   : IRC, NEB, NEB-TS, Multilevel, MM, QM/MM, CI optimization
   S Lehtola, MJT Oliveira, MAL Marques          : LibXC Library


 Your calculation uses the libint2 library for the computation of 2-el integrals
 For citations please refer to: http://libint.valeyev.net

 Your ORCA version has been built with support for libXC version: 4.2.3
 For citations please refer to: https://tddft.org/programs/libxc/

 This ORCA versions uses:
   CBLAS   interface :  Fast vector & matrix operations
   LAPACKE interface :  Fast linear algebra routines
   SCALAPACK package :  Parallel linear algebra routines


----- Orbital basis set information -----
Your calculation utilizes the basis: def2-TZVP
   F. Weigend and R. Ahlrichs, Phys. Chem. Chem. Phys. 7, 3297 (2005).

----- AuxC basis set information -----
Your calculation utilizes the auxiliary basis: def2-TZVP/C
  H-La, Hf-Rn : A. Hellweg, C. Hattig, S. Hofener and W. Klopper, Theor. Chem. Acc. 117, 587 (2007).
        Ce-Lu : J. Chmela and M. E. Harding, Mol. Phys. (2018).

================================================================================
                                        WARNINGS
                       Please study these warnings very carefully!
================================================================================


WARNING: No MP2 level density has been requested!
         To caclulate MP2 level properties use
         %mp2 Density relaxed end
         or
         %mp2 Density unrelaxed end

INFO   : the flag for use of LIBINT has been found!

================================================================================
                                       INPUT FILE
================================================================================
NAME = input.inp
|  1> ! RI-MP2 def2-TZVP def2-TZVP/C TightSCF FrozenCore
|  2> 
|  3> %pal nprocs 24 end
|  4> %maxcore 8000
|  5> %scf ConvForced true end
|  6> 
|  7> *xyz  0  1
|  8> O     0.00000     0.00000     0.00000
|  9> H    -0.92340     0.36802    -0.03410
| 10> C    -0.00910    -1.22295     0.80545
| 11> H     0.71437    -1.93857     0.42668
| 12> H    -0.95375    -1.65957     0.70552
| 13> H     0.10144    -0.94047     1.78688
| 14> O    -2.47976     1.59256    -0.50350
| 15> H    -2.85007     1.51381    -1.41053
| 16> C    -2.27835     2.95621    -0.28364
| 17> H    -1.26315     3.06556     0.09519
| 18> H    -2.91987     3.27961     0.50489
| 19> H    -2.46936     3.63803    -1.17117
| 20> O     3.57721     1.41120    -0.00974
| 21> H     3.52240     2.32355    -0.30472
| 22> C     2.93261     1.26950     1.23530
| 23> H     2.90524     0.27627     1.49151
| 24> H     1.89840     1.59963     1.17248
| 25> H     3.48585     1.76996     2.02795
| 26> O     4.11498    -0.72771    -1.20887
| 27> H     4.15906     0.13327    -0.80981
| 28> C     4.54367    -1.68454    -0.21445
| 29> H     4.68743    -2.65208    -0.77260
| 30> H     3.83251    -1.77111     0.58213
| 31> H     5.44278    -1.32874     0.20794
| 32> O     1.17707    -1.95393    -3.99267
| 33> H     1.25914    -1.02366    -4.27401
| 34> C     0.82914    -1.93661    -2.69079
| 35> H     0.68055    -2.92313    -2.34558
| 36> H    -0.15618    -1.57971    -2.43332
| 37> H     1.59742    -1.44539    -2.06759
| 38> O     1.30004     3.52731    -2.66166
| 39> H     0.48479     4.05562    -2.70124
| 40> C     0.84889     2.29546    -1.96977
| 41> H     1.47596     1.41474    -2.33135
| 42> H    -0.21972     2.02477    -2.19752
| 43> H     0.94273     2.34978    -0.82318
| 44> O    -0.81265    -3.21447     3.26849
| 45> H    -0.26438    -2.73710     3.86297
| 46> C    -2.16342    -3.06724     3.72919
| 47> H    -2.77357    -3.77319     3.16591
| 48> H    -2.56293    -2.04152     3.49010
| 49> H    -2.22280    -3.22058     4.83347
| 50> O    -4.55299     0.52183     1.77866
| 51> H    -5.09914     1.30683     1.69298
| 52> C    -4.87106    -0.44777     0.76806
| 53> H    -5.08683    -1.40695     1.30932
| 54> H    -3.99348    -0.58150     0.05676
| 55> H    -5.73913    -0.14625     0.21516
| 56> O    -0.79540    -0.53366     4.83053
| 57> H     0.13336    -0.60731     5.10276
| 58> C    -0.87230     0.57879     4.02403
| 59> H    -1.96554     0.97697     4.00653
| 60> H    -0.58332     0.29012     3.02657
| 61> H    -0.24217     1.33503     4.42466
| 62> O    -3.91999     1.57330    -2.81212
| 63> H    -4.29793     2.34496    -3.29730
| 64> C    -4.71514     0.40438    -2.68792
| 65> H    -4.70513     0.16412    -1.62700
| 66> H    -4.32474    -0.40623    -3.26470
| 67> H    -5.76801     0.59040    -3.06935
| 68> O    -0.54060    -5.12842    -1.48998
| 69> H    -0.66979    -5.80560    -2.18527
| 70> C    -1.52945    -4.21208    -1.69126
| 71> H    -1.42889    -3.53951    -0.83823
| 72> H    -2.51441    -4.69987    -1.73655
| 73> H    -1.30124    -3.69102    -2.61339
| 74> O     2.26039    -1.47475     4.95600
| 75> H     3.05098    -1.05381     5.29103
| 76> C     2.73297    -2.52335     4.14088
| 77> H     2.05359    -2.64399     3.24700
| 78> H     2.69424    -3.42331     4.65110
| 79> H     3.77026    -2.27344     3.80986
| 80> O     1.14229    -5.61741     0.83548
| 81> H     0.61245    -5.32757     0.02652
| 82> C     1.38618    -7.02899     0.90045
| 83> H     2.34714    -7.22823     1.33384
| 84> H     1.35168    -7.48860    -0.08077
| 85> H     0.63803    -7.51101     1.50264
| 86> O     5.36956    -0.33472     2.66391
| 87> H     6.09419    -0.04009     2.02242
| 88> C     5.47274     0.43454     3.81265
| 89> H     5.28097    -0.13930     4.69354
| 90> H     4.68606     1.17368     3.76824
| 91> H     6.49040     0.90171     3.87937
| 92> O     0.31555     2.49017    -5.75296
| 93> H     0.93428     3.14001    -5.25090
| 94> C    -0.68820     2.12688    -4.87349
| 95> H    -1.63782     2.01947    -5.36640
| 96> H    -0.79728     2.86040    -4.05818
| 97> H    -0.45948     1.14331    -4.44965
| 98> O     5.26544     2.66494    -3.00285
| 99> H     4.71050     2.53502    -3.76970
|100> C     4.84820     3.80762    -2.36403
|101> H     4.97840     3.67453    -1.30397
|102> H     3.80599     3.93963    -2.48446
|103> H     5.46050     4.68810    -2.70042
|104> O     0.28228     5.76137     3.30314
|105> H     0.00617     6.50308     2.65073
|106> C     0.56879     4.55236     2.50551
|107> H     0.77897     3.79415     3.23925
|108> H     1.45381     4.81796     1.98070
|109> H    -0.24375     4.28241     1.73822
|110> O     4.23395     1.41788    -5.26071
|111> H     3.51186     1.39068    -5.89444
|112> C     4.04979     0.35976    -4.34983
|113> H     4.77924     0.51422    -3.57089
|114> H     4.20369    -0.57623    -4.81044
|115> H     3.09310     0.40974    -3.94331
|116> O    -6.10886     2.95696     1.46304
|117> H    -6.86795     2.48521     1.42713
|118> C    -6.16714     4.11590     0.52390
|119> H    -5.38834     4.05314    -0.25978
|120> H    -6.04794     5.07249     1.09299
|121> H    -7.14745     4.10872    -0.03653
|122> O    -2.98030     4.73308     4.53953
|123> H    -3.30110     4.02955     5.12263
|124> C    -3.64120     4.43000     3.29781
|125> H    -3.10094     4.98003     2.45703
|126> H    -4.65417     4.75756     3.36448
|127> H    -3.63074     3.32548     3.12808
|128> *
|129> 
|130>                          ****END OF INPUT****
================================================================================

                       ****************************
                       * Single Point Calculation *
                       ****************************

---------------------------------
CARTESIAN COORDINATES (ANGSTROEM)
---------------------------------
  O      0.000000    0.000000    0.000000
  H     -0.923400    0.368020   -0.034100
  C     -0.009100   -1.222950    0.805450
  H      0.714370   -1.938570    0.426680
  H     -0.953750   -1.659570    0.705520
  H      0.101440   -0.940470    1.786880
  O     -2.479760    1.592560   -0.503500
  H     -2.850070    1.513810   -1.410530
  C     -2.278350    2.956210   -0.283640
  H     -1.263150    3.065560    0.095190
  H     -2.919870    3.279610    0.504890
  H     -2.469360    3.638030   -1.171170
  O      3.577210    1.411200   -0.009740
  H      3.522400    2.323550   -0.304720
  C      2.932610    1.269500    1.235300
  H      2.905240    0.276270    1.491510
  H      1.898400    1.599630    1.172480
  H      3.485850    1.769960    2.027950
  O      4.114980   -0.727710   -1.208870
  H      4.159060    0.133270   -0.809810
  C      4.543670   -1.684540   -0.214450
  H      4.687430   -2.652080   -0.772600
  H      3.832510   -1.771110    0.582130
  H      5.442780   -1.328740    0.207940
  O      1.177070   -1.953930   -3.992670
  H      1.259140   -1.023660   -4.274010
  C      0.829140   -1.936610   -2.690790
  H      0.680550   -2.923130   -2.345580
  H     -0.156180   -1.579710   -2.433320
  H      1.597420   -1.445390   -2.067590
  O      1.300040    3.527310   -2.661660
  H      0.484790    4.055620   -2.701240
  C      0.848890    2.295460   -1.969770
  H      1.475960    1.414740   -2.331350
  H     -0.219720    2.024770   -2.197520
  H      0.942730    2.349780   -0.823180
  O     -0.812650   -3.214470    3.268490
  H     -0.264380   -2.737100    3.862970
  C     -2.163420   -3.067240    3.729190
  H     -2.773570   -3.773190    3.165910
  H     -2.562930   -2.041520    3.490100
  H     -2.222800   -3.220580    4.833470
  O     -4.552990    0.521830    1.778660
  H     -5.099140    1.306830    1.692980
  C     -4.871060   -0.447770    0.768060
  H     -5.086830   -1.406950    1.309320
  H     -3.993480   -0.581500    0.056760
  H     -5.739130   -0.146250    0.215160
  O     -0.795400   -0.533660    4.830530
  H      0.133360   -0.607310    5.102760
  C     -0.872300    0.578790    4.024030
  H     -1.965540    0.976970    4.006530
  H     -0.583320    0.290120    3.026570
  H     -0.242170    1.335030    4.424660
  O     -3.919990    1.573300   -2.812120
  H     -4.297930    2.344960   -3.297300
  C     -4.715140    0.404380   -2.687920
  H     -4.705130    0.164120   -1.627000
  H     -4.324740   -0.406230   -3.264700
  H     -5.768010    0.590400   -3.069350
  O     -0.540600   -5.128420   -1.489980
  H     -0.669790   -5.805600   -2.185270
  C     -1.529450   -4.212080   -1.691260
  H     -1.428890   -3.539510   -0.838230
  H     -2.514410   -4.699870   -1.736550
  H     -1.301240   -3.691020   -2.613390
  O      2.260390   -1.474750    4.956000
  H      3.050980   -1.053810    5.291030
  C      2.732970   -2.523350    4.140880
  H      2.053590   -2.643990    3.247000
  H      2.694240   -3.423310    4.651100
  H      3.770260   -2.273440    3.809860
  O      1.142290   -5.617410    0.835480
  H      0.612450   -5.327570    0.026520
  C      1.386180   -7.028990    0.900450
  H      2.347140   -7.228230    1.333840
  H      1.351680   -7.488600   -0.080770
  H      0.638030   -7.511010    1.502640
  O      5.369560   -0.334720    2.663910
  H      6.094190   -0.040090    2.022420
  C      5.472740    0.434540    3.812650
  H      5.280970   -0.139300    4.693540
  H      4.686060    1.173680    3.768240
  H      6.490400    0.901710    3.879370
  O      0.315550    2.490170   -5.752960
  H      0.934280    3.140010   -5.250900
  C     -0.688200    2.126880   -4.873490
  H     -1.637820    2.019470   -5.366400
  H     -0.797280    2.860400   -4.058180
  H     -0.459480    1.143310   -4.449650
  O      5.265440    2.664940   -3.002850
  H      4.710500    2.535020   -3.769700
  C      4.848200    3.807620   -2.364030
  H      4.978400    3.674530   -1.303970
  H      3.805990    3.939630   -2.484460
  H      5.460500    4.688100   -2.700420
  O      0.282280    5.761370    3.303140
  H      0.006170    6.503080    2.650730
  C      0.568790    4.552360    2.505510
  H      0.778970    3.794150    3.239250
  H      1.453810    4.817960    1.980700
  H     -0.243750    4.282410    1.738220
  O      4.233950    1.417880   -5.260710
  H      3.511860    1.390680   -5.894440
  C      4.049790    0.359760   -4.349830
  H      4.779240    0.514220   -3.570890
  H      4.203690   -0.576230   -4.810440
  H      3.093100    0.409740   -3.943310
  O     -6.108860    2.956960    1.463040
  H     -6.867950    2.485210    1.427130
  C     -6.167140    4.115900    0.523900
  H     -5.388340    4.053140   -0.259780
  H     -6.047940    5.072490    1.092990
  H     -7.147450    4.108720   -0.036530
  O     -2.980300    4.733080    4.539530
  H     -3.301100    4.029550    5.122630
  C     -3.641200    4.430000    3.297810
  H     -3.100940    4.980030    2.457030
  H     -4.654170    4.757560    3.364480
  H     -3.630740    3.325480    3.128080

----------------------------
CARTESIAN COORDINATES (A.U.)
----------------------------
  NO LB      ZA    FRAG     MASS         X           Y           Z
   0 O     8.0000    0    15.999    0.000000    0.000000    0.000000
   1 H     1.0000    0     1.008   -1.744973    0.695457   -0.064440
   2 C     6.0000    0    12.011   -0.017197   -2.311041    1.522080
   3 H     1.0000    0     1.008    1.349964   -3.663366    0.806308
   4 H     1.0000    0     1.008   -1.802326   -3.136133    1.333240
   5 H     1.0000    0     1.008    0.191694   -1.777231    3.376714
   6 O     8.0000    0    15.999   -4.686067    3.009502   -0.951477
   7 H     1.0000    0     1.008   -5.385852    2.860686   -2.665515
   8 C     6.0000    0    12.011   -4.305458    5.586427   -0.536002
   9 H     1.0000    0     1.008   -2.387008    5.793069    0.179883
  10 H     1.0000    0     1.008   -5.517755    6.197565    0.954104
  11 H     1.0000    0     1.008   -4.666414    6.874880   -2.213191
  12 O     8.0000    0    15.999    6.759947    2.666782   -0.018406
  13 H     1.0000    0     1.008    6.656371    4.390873   -0.575837
  14 C     6.0000    0    12.011    5.541830    2.399007    2.334379
  15 H     1.0000    0     1.008    5.490108    0.522075    2.818545
  16 H     1.0000    0     1.008    3.587456    3.022863    2.215666
  17 H     1.0000    0     1.008    6.587302    3.344740    3.832270
  18 O     8.0000    0    15.999    7.776185   -1.375173   -2.284433
  19 H     1.0000    0     1.008    7.859484    0.251844   -1.530319
  20 C     6.0000    0    12.011    8.586292   -3.183319   -0.405252
  21 H     1.0000    0     1.008    8.857959   -5.011705   -1.460002
  22 H     1.0000    0     1.008    7.242394   -3.346913    1.100066
  23 H     1.0000    0     1.008   10.285364   -2.510955    0.392950
  24 O     8.0000    0    15.999    2.224340   -3.692393   -7.545053
  25 H     1.0000    0     1.008    2.379430   -1.934437   -8.076708
  26 C     6.0000    0    12.011    1.566848   -3.659663   -5.084856
  27 H     1.0000    0     1.008    1.286053   -5.523915   -4.432504
  28 H     1.0000    0     1.008   -0.295137   -2.985219   -4.598308
  29 H     1.0000    0     1.008    3.018686   -2.731391   -3.907179
  30 O     8.0000    0    15.999    2.456720    6.665650   -5.029808
  31 H     1.0000    0     1.008    0.916120    7.664011   -5.104604
  32 C     6.0000    0    12.011    1.604170    4.337791   -3.722326
  33 H     1.0000    0     1.008    2.789160    2.673471   -4.405613
  34 H     1.0000    0     1.008   -0.415211    3.826261   -4.152711
  35 H     1.0000    0     1.008    1.781502    4.440441   -1.555585
  36 O     8.0000    0    15.999   -1.535686   -6.074468    6.176551
  37 H     1.0000    0     1.008   -0.499606   -5.172369    7.299955
  38 C     6.0000    0    12.011   -4.088271   -5.796244    7.047148
  39 H     1.0000    0     1.008   -5.241288   -7.130296    5.982703
  40 H     1.0000    0     1.008   -4.843236   -3.857914    6.595333
  41 H     1.0000    0     1.008   -4.200483   -6.086014    9.133935
  42 O     8.0000    0    15.999   -8.603904    0.986116    3.361180
  43 H     1.0000    0     1.008   -9.635978    2.469551    3.199269
  44 C     6.0000    0    12.011   -9.204969   -0.846163    1.451423
  45 H     1.0000    0     1.008   -9.612716   -2.658750    2.474256
  46 H     1.0000    0     1.008   -7.546584   -1.098876    0.107261
  47 H     1.0000    0     1.008  -10.845384   -0.276372    0.406593
  48 O     8.0000    0    15.999   -1.503088   -1.008471    9.128379
  49 H     1.0000    0     1.008    0.252014   -1.147650    9.642819
  50 C     6.0000    0    12.011   -1.648408    1.093755    7.604315
  51 H     1.0000    0     1.008   -3.714332    1.846206    7.571244
  52 H     1.0000    0     1.008   -1.102315    0.548247    5.719388
  53 H     1.0000    0     1.008   -0.457635    2.522841    8.361396
  54 O     8.0000    0    15.999   -7.407708    2.973106   -5.314137
  55 H     1.0000    0     1.008   -8.121911    4.431332   -6.230994
  56 C     6.0000    0    12.011   -8.910323    0.764167   -5.079433
  57 H     1.0000    0     1.008   -8.891407    0.310142   -3.074584
  58 H     1.0000    0     1.008   -8.172574   -0.767663   -6.169389
  59 H     1.0000    0     1.008  -10.899959    1.115694   -5.800231
  60 O     8.0000    0    15.999   -1.021586   -9.691309   -2.815654
  61 H     1.0000    0     1.008   -1.265720  -10.970994   -4.129562
  62 C     6.0000    0    12.011   -2.890242   -7.959678   -3.196018
  63 H     1.0000    0     1.008   -2.700211   -6.688705   -1.584025
  64 H     1.0000    0     1.008   -4.751546   -8.881467   -3.281604
  65 H     1.0000    0     1.008   -2.458987   -6.975017   -4.938591
  66 O     8.0000    0    15.999    4.271518   -2.786874    9.365483
  67 H     1.0000    0     1.008    5.765517   -1.991412    9.998598
  68 C     6.0000    0    12.011    5.164565   -4.768440    7.825129
  69 H     1.0000    0     1.008    3.880723   -4.996417    6.135941
  70 H     1.0000    0     1.008    5.091376   -6.469118    8.789305
  71 H     1.0000    0     1.008    7.124759   -4.296179    7.199592
  72 O     8.0000    0    15.999    2.158615  -10.615366    1.578828
  73 H     1.0000    0     1.008    1.157363  -10.067648    0.050116
  74 C     6.0000    0    12.011    2.619501  -13.282866    1.701604
  75 H     1.0000    0     1.008    4.435452  -13.659375    2.520592
  76 H     1.0000    0     1.008    2.554305  -14.151403   -0.152633
  77 H     1.0000    0     1.008    1.205702  -14.193752    2.839578
  78 O     8.0000    0    15.999   10.146998   -0.632529    5.034060
  79 H     1.0000    0     1.008   11.516350   -0.075759    3.821820
  80 C     6.0000    0    12.011   10.341980    0.821162    7.204864
  81 H     1.0000    0     1.008    9.979587   -0.263239    8.869505
  82 H     1.0000    0     1.008    8.855370    2.217934    7.120942
  83 H     1.0000    0     1.008   12.265078    1.703985    7.330947
  84 O     8.0000    0    15.999    0.596303    4.705739  -10.871519
  85 H     1.0000    0     1.008    1.765533    5.933759   -9.922763
  86 C     6.0000    0    12.011   -1.300510    4.019221   -9.209561
  87 H     1.0000    0     1.008   -3.095031    3.816245  -10.141026
  88 H     1.0000    0     1.008   -1.506641    5.405373   -7.668849
  89 H     1.0000    0     1.008   -0.868291    2.160543   -8.408620
  90 O     8.0000    0    15.999    9.950240    5.036007   -5.674564
  91 H     1.0000    0     1.008    8.901555    4.790494   -7.123701
  92 C     6.0000    0    12.011    9.161770    7.195359   -4.467369
  93 H     1.0000    0     1.008    9.407813    6.943855   -2.464146
  94 H     1.0000    0     1.008    7.192279    7.444822   -4.694949
  95 H     1.0000    0     1.008   10.318850    8.859225   -5.103054
  96 O     8.0000    0    15.999    0.533432   10.887411    6.242030
  97 H     1.0000    0     1.008    0.011660   12.289040    5.009154
  98 C     6.0000    0    12.011    1.074857    8.602714    4.734728
  99 H     1.0000    0     1.008    1.472040    7.169904    6.121295
 100 H     1.0000    0     1.008    2.747303    9.104625    3.742981
 101 H     1.0000    0     1.008   -0.460621    8.092582    3.284760
 102 O     8.0000    0    15.999    8.001006    2.679405   -9.941301
 103 H     1.0000    0     1.008    6.636454    2.628004  -11.138877
 104 C     6.0000    0    12.011    7.652994    0.679848   -8.219987
 105 H     1.0000    0     1.008    9.031455    0.971735   -6.748004
 106 H     1.0000    0     1.008    7.943823   -1.088917   -9.090414
 107 H     1.0000    0     1.008    5.845112    0.774296   -7.451776
 108 O     8.0000    0    15.999  -11.544072    5.587845    2.764745
 109 H     1.0000    0     1.008  -12.978545    4.696366    2.696885
 110 C     6.0000    0    12.011  -11.654206    7.777924    0.990028
 111 H     1.0000    0     1.008  -10.182487    7.659325   -0.490913
 112 H     1.0000    0     1.008  -11.428950    9.585617    2.065452
 113 H     1.0000    0     1.008  -13.506723    7.764356   -0.069032
 114 O     8.0000    0    15.999   -5.631951    8.944225    8.578468
 115 H     1.0000    0     1.008   -6.238175    7.614746    9.680368
 116 C     6.0000    0    12.011   -6.880871    8.371487    6.231958
 117 H     1.0000    0     1.008   -5.859927    9.410893    4.643114
 118 H     1.0000    0     1.008   -8.795107    8.990485    6.357946
 119 H     1.0000    0     1.008   -6.861104    6.284246    5.911215

--------------------------------
INTERNAL COORDINATES (ANGSTROEM)
--------------------------------
 O      0   0   0     0.000000000000     0.00000000     0.00000000
 H      1   0   0     0.994620073395     0.00000000     0.00000000
 C      1   2   0     1.464390390231   108.78957372     0.00000000
 H      3   1   2     1.085811925796   110.75625167   146.28121578
 H      3   1   2     1.045460019226   107.56684315    29.59173314
 H      3   1   2     1.027238476158   107.16813746   274.06782035
 O      2   1   3     2.035212770498   160.13442703   181.01856937
 H      7   2   1     0.982870530385   116.92039561    75.85738939
 C      7   2   1     1.395867375577   116.17543302   309.20280171
 H      9   7   2     1.089082472267   106.70104035     1.13737305
 H      9   7   2     1.066731002315   109.01571783   247.25226028
 H      9   7   2     1.135373433457   116.05697454   126.22944483
 O      1   2   3     3.845518390503   136.69796512   212.42834592
 H     13   1   2     0.960416502878   107.23534429   344.30864150
 C     13   1   2     1.409153168254    62.31170982    88.20454687
 H     15  13   1     1.026108431843   109.27774148    74.22351135
 H     15  13   1     1.087438500974   110.70022390   317.31492822
 H     15  13   1     1.088498383876   111.38704263   191.08739605
 O     13   1   2     2.510387483617    83.55853966   211.76957987
 H     19  13   1     0.949988679090    15.65437474   174.00084292
 C     19  13   1     1.445050138023   107.39768186   266.08295039
 H     21  19  13     1.126202473670   105.40705416   175.12387069
 H     21  19  13     1.071346165765   111.60752506    52.61977955
 H     21  19  13     1.055180432059   107.75705455   295.21537248
 O     19  13   1     4.229003794808   114.37211916    38.87354727
 H     25  19  13     0.975340942133    81.65498258    48.51946119
 C     25  19  13     1.347682010602    62.59565255   294.68742300
 H     27  25  19     1.055684916346   109.89002182   248.19627291
 H     27  25  19     1.079131091805   118.06402350   139.74808898
 H     27  25  19     1.104504181432   111.78935772     9.62428359
 O     14  13   1     3.455877351817   125.24399996   325.08536286
 H     31  14  13     0.972270844467   139.13440525   105.20402542
 C     31  14  13     1.483139412564    65.67864831    24.49123186
 H     33  31  14     1.140010789291   109.04909764   288.41417362
 H     33  31  14     1.125642248097   113.21101783   170.93430286
 H     33  31  14     1.151705359934   113.60776423    48.79863045
 O      6   3   1     2.863879313135   103.97965962   161.32694818
 H     37   6   3     0.939089229094    74.78281523   158.43767527
 C     37   6   3     1.434747627912   112.65218025   260.96374763
 H     39  37   6     1.089923292439   107.13535805   110.72840636
 H     39  37   6     1.126442979738   111.05065339   354.98364417
 H     39  37   6     1.116455757475   110.70638065   234.47820100
 O      7   2   1     3.263893324145    97.30208997   195.48393369
 H     43   7   2     0.960128056511    91.75980104   162.13220683
 C     43   7   2     1.436177233109    82.53829711   273.38353960
 H     45  43   7     1.122294681846   106.27300204   144.62670759
 H     45  43   7     1.137531564090   110.39668601    24.83225834
 H     45  43   7     1.072454309190   110.62366092   263.36773156
 O     38  37   6     2.464407114825   125.25675543    68.67514259
 H     49  38  37     0.970633109367    80.56617341   190.42423003
 C     49  38  37     1.376190707170   120.31198802   293.76081924
 H     51  49  38     1.163626770060   109.75033298   114.11289926
 H     51  49  38     1.077852615574   108.11065073   355.04136866
 H     51  49  38     1.062763920822   108.73294457   232.79250955
 O      8   7   2     1.764290904188   163.51644881   157.13602097
 H     55   8   7     0.986761081316   130.48481560    66.17727819
 C     55   8   7     1.419176919521   104.03293498   277.55371936
 H     57  55   8     1.087831013577   105.19528546    24.58662514
 H     57  55   8     1.068726298217   111.89025627   264.18310602
 H     57  55   8     1.135177308706   110.81103209   145.65662374
 O     28  27  25     2.662059854060   160.70090040   251.78112222
 H     61  28  27     0.979127669204   113.90597291    99.56419607
 C     61  28  27     1.363090956796    74.24147619   359.46347898
 H     63  61  28     1.090927540857   103.42175683   284.76999703
 H     63  61  28     1.100062029978   110.94864137   163.53191374
 H     63  61  28     1.083469918641   107.22791117    41.53176587
 O     50  49  38     2.301792186993   153.49864104    19.70386097
 H     67  50  49     0.956278271530   125.15169837   159.03299080
 C     67  50  49     1.409721401838   128.82625675   354.52815570
 H     69  67  50     1.129217715235   109.60235833    22.99852107
 H     69  67  50     1.035254781636   110.43314409   266.64453396
 H     69  67  50     1.117139110675   108.43322516   143.53327418
 O     61  28  27     2.911871251240    97.50882392   229.36387784
 H     73  61  28     1.009531541261     7.48229084    14.36197162
 C     73  61  28     1.433967060082   107.44487981   221.08997107
 H     75  73  61     1.072831576390   110.69926603   149.06945684
 H     75  73  61     1.084077621990   111.77257975    28.13908835
 H     75  73  61     1.074571774708   110.39813230   268.97458572
 O     24  21  19     2.650514208545   118.28372861   106.38777436
 H     79  24  21     1.011634763094    60.12345736   205.22720582
 C     79  24  21     1.386365986167   166.86020514   232.89325592
 H     81  79  80     1.068660502966   111.82053049   218.33481901
 H     81  79  80     1.080354390975   106.94004980   103.07976564
 H     81  79  80     1.121753646261   110.35816652   340.76164440
 O     31  14  13     3.406026369496   134.33074278   312.84378451
 H     85  31  14     1.028194087758    35.94697879   260.97470030
 C     85  31  14     1.383098394005    73.29970483   101.99062399
 H     87  85  31     1.075302432156   112.06521515   155.80067753
 H     87  85  31     1.102125416139   111.55551279    33.84482289
 H     87  85  31     1.095154385874   109.29462098   272.73835136
 O     14  13   1     3.230269504329   109.03480130   240.38211621
 H     91  14  13     0.955456190780   110.03596921    92.50033905
 C     91  14  13     1.374007930254    62.33464310   192.94127563
 H     93  91  14     1.076286296345   108.56314355    42.13121219
 H     93  91  14     1.057417471531   110.49778940   288.33188236
 H     93  91  14     1.123972665370   110.29798333   161.50998400
 O     10   9   7     4.466171586885   129.27248386   219.66079583
 H     97  10   9     1.025675028603    83.48071114   295.21898107
 C     97  10   9     1.476484601037    35.39858735   162.10947386
 H     99  97  10     1.075840333925   104.27396899   233.60911865
 H     99  97  10     1.062652011008   102.92926698   118.19027653
 H     99  97  10     1.149707875158   114.56056350     0.59067301
 O     92  91  14     1.923073712108   147.69309658   251.06631219
 H    103  92  91     0.961128254189   135.54780947   167.98056487
 C    103  92  91     1.408273842120    88.13153501    54.07000011
 H    105 103  92     1.078286936627   105.73273159   326.48675838
 H    105 103  92     1.054478099441   111.42682549   206.85424834
 H    105 103  92     1.040678752978   109.68158790    84.39122778
 O     44  43   7     1.948162184958   176.26481366   341.69109375
 H    109  44  43     0.894458058659    89.87757529   151.48861734
 C    109  44  43     1.492823640488   138.76931878    29.46883332
 H    111 109  44     1.106626675984   111.96305392   357.11552491
 H    111 109  44     1.119435793693   109.84214752   235.25440339
 H    111 109  44     1.129221427976   109.94866222   113.45032622
 O     97  10   9     3.637371140343    76.29847091    37.54619196
 H    115  97  10     0.968438284508   135.00402053    93.91136379
 C    115  97  10     1.438928370281   100.26447784   334.61595430
 H    117 115  97     1.140756274101   108.47819050   338.46422564
 H    117 115  97     1.066699893785   108.51484410   218.55867110
 H    117 115  97     1.117533943511   109.56894017    99.91873580

---------------------------
INTERNAL COORDINATES (A.U.)
---------------------------
 O      0   0   0     0.000000000000     0.00000000     0.00000000
 H      1   0   0     1.879559546017     0.00000000     0.00000000
 C      1   2   0     2.767296790682   108.78957372     0.00000000
 H      3   1   2     2.051887172699   110.75625167   146.28121578
 H      3   1   2     1.975633120301   107.56684315    29.59173314
 H      3   1   2     1.941199394166   107.16813746   274.06782035
 O      2   1   3     3.845994760501   160.13442703   181.01856937
 H      7   2   1     1.857356127530   116.92039561    75.85738939
 C      7   2   1     2.637807059116   116.17543302   309.20280171
 H      9   7   2     2.058067609839   106.70104035     1.13737305
 H      9   7   2     2.015829452939   109.01571783   247.25226028
 H      9   7   2     2.145544848964   116.05697454   126.22944483
 O      1   2   3     7.266976601009   136.69796512   212.42834592
 H     13   1   2     1.814924164937   107.23534429   344.30864150
 C     13   1   2     2.662913568747    62.31170982    88.20454687
 H     15  13   1     1.939063919891   109.27774148    74.22351135
 H     15  13   1     2.054960954322   110.70022390   317.31492822
 H     15  13   1     2.056963842741   111.38704263   191.08739605
 O     13   1   2     4.743944834060    83.55853966   211.76957987
 H     19  13   1     1.795218433807    15.65437474   174.00084292
 C     19  13   1     2.730749010648   107.39768186   266.08295039
 H     21  19  13     2.128214246581   105.40705416   175.12387069
 H     21  19  13     2.024550847923   111.60752506    52.61977955
 H     21  19  13     1.994002038464   107.75705455   295.21537248
 O     19  13   1     7.991658991501   114.37211916    38.87354727
 H     25  19  13     1.843127267831    81.65498258    48.51946119
 C     25  19  13     2.546749915650    62.59565255   294.68742300
 H     27  25  19     1.994955375605   109.89002182   248.19627291
 H     27  25  19     2.039262226111   118.06402350   139.74808898
 H     27  25  19     2.087210416677   111.78935772     9.62428359
 O     14  13   1     6.530661747355   125.24399996   325.08536286
 H     31  14  13     1.837325624038   139.13440525   105.20402542
 C     31  14  13     2.802727308170    65.67864831    24.49123186
 H     33  31  14     2.154308181475   109.04909764   288.41417362
 H     33  31  14     2.127155573674   113.21101783   170.93430286
 H     33  31  14     2.176407717244   113.60776423    48.79863045
 O      6   3   1     5.411947582427   103.97965962   161.32694818
 H     37   6   3     1.774621458303    74.78281523   158.43767527
 C     37   6   3     2.711280088047   112.65218025   260.96374763
 H     39  37   6     2.059656529691   107.13535805   110.72840636
 H     39  37   6     2.128668737182   111.05065339   354.98364417
 H     39  37   6     2.109795622268   110.70638065   234.47820100
 O      7   2   1     6.167864512968    97.30208997   195.48393369
 H     43   7   2     1.814379080300    91.75980104   162.13220683
 C     43   7   2     2.713981650348    82.53829711   273.38353960
 H     45  43   7     2.120829590245   106.27300204   144.62670759
 H     45  43   7     2.149623124820   110.39668601    24.83225834
 H     45  43   7     2.026644935513   110.62366092   263.36773156
 O     38  37   6     4.657054529506   125.25675543    68.67514259
 H     49  38  37     1.834230753221    80.56617341   190.42423003
 C     49  38  37     2.600623544598   120.31198802   293.76081924
 H     51  49  38     2.198935917513   109.75033298   114.11289926
 H     51  49  38     2.036846256166   108.11065073   355.04136866
 H     51  49  38     2.008332755365   108.73294457   232.79250955
 O      8   7   2     3.334026629483   163.51644881   157.13602097
 H     55   8   7     1.864708203299   130.48481560    66.17727819
 C     55   8   7     2.681855713476   104.03293498   277.55371936
 H     57  55   8     2.055702695647   105.19528546    24.58662514
 H     57  55   8     2.019600015749   111.89025627   264.18310602
 H     57  55   8     2.145174226895   110.81103209   145.65662374
 O     28  27  25     5.030564076281   160.70090040   251.78112222
 H     61  28  27     1.850283144939   113.90597291    99.56419607
 C     61  28  27     2.575868603970    74.24147619   359.46347898
 H     63  61  28     2.061554284172   103.42175683   284.76999703
 H     63  61  28     2.078815966984   110.94864137   163.53191374
 H     63  61  28     2.047461420573   107.22791117    41.53176587
 O     50  49  38     4.349756850616   153.49864104    19.70386097
 H     67  50  49     1.807104041011   125.15169837   159.03299080
 C     67  50  49     2.663987374601   128.82625675   354.52815570
 H     69  67  50     2.133912227366   109.60235833    22.99852107
 H     69  67  50     1.956348016124   110.43314409   266.64453396
 H     69  67  50     2.111086972668   108.43322516   143.53327418
 O     61  28  27     5.502639202083    97.50882392   229.36387784
 H     73  61  28     1.907738136538     7.48229084    14.36197162
 C     73  61  28     2.709805028619   107.44487981   221.08997107
 H     75  73  61     2.027357867201   110.69926603   149.06945684
 H     75  73  61     2.048609813474   111.77257975    28.13908835
 H     75  73  61     2.030646365441   110.39813230   268.97458572
 O     24  21  19     5.008745968217   118.28372861   106.38777436
 H     79  24  21     1.911712649802    60.12345736   205.22720582
 C     79  24  21     2.619852035239   166.86020514   232.89325592
 H     81  79  80     2.019475680745   111.82053049   218.33481901
 H     81  79  80     2.041573926523   106.94004980   103.07976564
 H     81  79  80     2.119807181161   110.35816652   340.76164440
 O     31  14  13     6.436457043261   134.33074278   312.84378451
 H     85  31  14     1.943005238379    35.94697879   260.97470030
 C     85  31  14     2.613677180936    73.29970483   101.99062399
 H     87  85  31     2.032027107914   112.06521515   155.80067753
 H     87  85  31     2.082715201737   111.55551279    33.84482289
 H     87  85  31     2.069541863665   109.29462098   272.73835136
 O     14  13   1     6.104324701940   109.03480130   240.38211621
 H     91  14  13     1.805550533534   110.03596921    92.50033905
 C     91  14  13     2.596498694015    62.33464310   192.94127563
 H     93  91  14     2.033886341784   108.56314355    42.13121219
 H     93  91  14     1.998229430418   110.49778940   288.33188236
 H     93  91  14     2.124000519564   110.29798333   161.50998400
 O     10   9   7     8.439841166313   129.27248386   219.66079583
 H     97  10   9     1.938244906462    83.48071114   295.21898107
 C     97  10   9     2.790151536912    35.39858735   162.10947386
 H     99  97  10     2.033043594945   104.27396899   233.60911865
 H     99  97  10     2.008121276466   102.92926698   118.19027653
 H     99  97  10     2.172633018061   114.56056350     0.59067301
 O     92  91  14     3.634082651227   147.69309658   251.06631219
 H    103  92  91     1.816269179991   135.54780947   167.98056487
 C    103  92  91     2.661251883172    88.13153501    54.07000011
 H    105 103  92     2.037667004010   105.73273159   326.48675838
 H    105 103  92     1.992674822161   111.42682549   206.85424834
 H    105 103  92     1.966597836519   109.68158790    84.39122778
 O     44  43   7     3.681492994032   176.26481366   341.69109375
 H    109  44  43     1.690280769144    89.87757529   151.48861734
 C    109  44  43     2.821027846766   138.76931878    29.46883332
 H    111 109  44     2.091221350102   111.96305392   357.11552491
 H    111 109  44     2.115427074588   109.84214752   235.25440339
 H    111 109  44     2.133919243430   109.94866222   113.45032622
 O     97  10   9     6.873635302677    76.29847091    37.54619196
 H    115  97  10     1.830083135324   135.00402053    93.91136379
 C    115  97  10     2.719180546161   100.26447784   334.61595430
 H    117 115  97     2.155716943603   108.47819050   338.46422564
 H    117 115  97     2.015770666336   108.51484410   218.55867110
 H    117 115  97     2.111833098597   109.56894017    99.91873580

---------------------
BASIS SET INFORMATION
---------------------
There are 3 groups of distinct atoms

 Group   1 Type O   : 11s6p2d1f contracted to 5s3p2d1f pattern {62111/411/11/1}
 Group   2 Type H   : 5s1p contracted to 3s1p pattern {311/1}
 Group   3 Type C   : 11s6p2d1f contracted to 5s3p2d1f pattern {62111/411/11/1}

Atom   0O    basis set group =>   1
Atom   1H    basis set group =>   2
Atom   2C    basis set group =>   3
Atom   3H    basis set group =>   2
Atom   4H    basis set group =>   2
Atom   5H    basis set group =>   2
Atom   6O    basis set group =>   1
Atom   7H    basis set group =>   2
Atom   8C    basis set group =>   3
Atom   9H    basis set group =>   2
Atom  10H    basis set group =>   2
Atom  11H    basis set group =>   2
Atom  12O    basis set group =>   1
Atom  13H    basis set group =>   2
Atom  14C    basis set group =>   3
Atom  15H    basis set group =>   2
Atom  16H    basis set group =>   2
Atom  17H    basis set group =>   2
Atom  18O    basis set group =>   1
Atom  19H    basis set group =>   2
Atom  20C    basis set group =>   3
Atom  21H    basis set group =>   2
Atom  22H    basis set group =>   2
Atom  23H    basis set group =>   2
Atom  24O    basis set group =>   1
Atom  25H    basis set group =>   2
Atom  26C    basis set group =>   3
Atom  27H    basis set group =>   2
Atom  28H    basis set group =>   2
Atom  29H    basis set group =>   2
Atom  30O    basis set group =>   1
Atom  31H    basis set group =>   2
Atom  32C    basis set group =>   3
Atom  33H    basis set group =>   2
Atom  34H    basis set group =>   2
Atom  35H    basis set group =>   2
Atom  36O    basis set group =>   1
Atom  37H    basis set group =>   2
Atom  38C    basis set group =>   3
Atom  39H    basis set group =>   2
Atom  40H    basis set group =>   2
Atom  41H    basis set group =>   2
Atom  42O    basis set group =>   1
Atom  43H    basis set group =>   2
Atom  44C    basis set group =>   3
Atom  45H    basis set group =>   2
Atom  46H    basis set group =>   2
Atom  47H    basis set group =>   2
Atom  48O    basis set group =>   1
Atom  49H    basis set group =>   2
Atom  50C    basis set group =>   3
Atom  51H    basis set group =>   2
Atom  52H    basis set group =>   2
Atom  53H    basis set group =>   2
Atom  54O    basis set group =>   1
Atom  55H    basis set group =>   2
Atom  56C    basis set group =>   3
Atom  57H    basis set group =>   2
Atom  58H    basis set group =>   2
Atom  59H    basis set group =>   2
Atom  60O    basis set group =>   1
Atom  61H    basis set group =>   2
Atom  62C    basis set group =>   3
Atom  63H    basis set group =>   2
Atom  64H    basis set group =>   2
Atom  65H    basis set group =>   2
Atom  66O    basis set group =>   1
Atom  67H    basis set group =>   2
Atom  68C    basis set group =>   3
Atom  69H    basis set group =>   2
Atom  70H    basis set group =>   2
Atom  71H    basis set group =>   2
Atom  72O    basis set group =>   1
Atom  73H    basis set group =>   2
Atom  74C    basis set group =>   3
Atom  75H    basis set group =>   2
Atom  76H    basis set group =>   2
Atom  77H    basis set group =>   2
Atom  78O    basis set group =>   1
Atom  79H    basis set group =>   2
Atom  80C    basis set group =>   3
Atom  81H    basis set group =>   2
Atom  82H    basis set group =>   2
Atom  83H    basis set group =>   2
Atom  84O    basis set group =>   1
Atom  85H    basis set group =>   2
Atom  86C    basis set group =>   3
Atom  87H    basis set group =>   2
Atom  88H    basis set group =>   2
Atom  89H    basis set group =>   2
Atom  90O    basis set group =>   1
Atom  91H    basis set group =>   2
Atom  92C    basis set group =>   3
Atom  93H    basis set group =>   2
Atom  94H    basis set group =>   2
Atom  95H    basis set group =>   2
Atom  96O    basis set group =>   1
Atom  97H    basis set group =>   2
Atom  98C    basis set group =>   3
Atom  99H    basis set group =>   2
Atom 100H    basis set group =>   2
Atom 101H    basis set group =>   2
Atom 102O    basis set group =>   1
Atom 103H    basis set group =>   2
Atom 104C    basis set group =>   3
Atom 105H    basis set group =>   2
Atom 106H    basis set group =>   2
Atom 107H    basis set group =>   2
Atom 108O    basis set group =>   1
Atom 109H    basis set group =>   2
Atom 110C    basis set group =>   3
Atom 111H    basis set group =>   2
Atom 112H    basis set group =>   2
Atom 113H    basis set group =>   2
Atom 114O    basis set group =>   1
Atom 115H    basis set group =>   2
Atom 116C    basis set group =>   3
Atom 117H    basis set group =>   2
Atom 118H    basis set group =>   2
Atom 119H    basis set group =>   2
---------------------------------
AUXILIARY/C BASIS SET INFORMATION
---------------------------------
There are 3 groups of distinct atoms

 Group   1 Type O   : 8s6p5d3f1g contracted to 8s6p4d3f1g pattern {11111111/111111/2111/111/1}
 Group   2 Type H   : 4s3p2d contracted to 4s2p1d pattern {1111/21/2}
 Group   3 Type C   : 8s6p5d3f1g contracted to 8s6p4d3f1g pattern {11111111/111111/2111/111/1}

Atom   0O    basis set group =>   1
Atom   1H    basis set group =>   2
Atom   2C    basis set group =>   3
Atom   3H    basis set group =>   2
Atom   4H    basis set group =>   2
Atom   5H    basis set group =>   2
Atom   6O    basis set group =>   1
Atom   7H    basis set group =>   2
Atom   8C    basis set group =>   3
Atom   9H    basis set group =>   2
Atom  10H    basis set group =>   2
Atom  11H    basis set group =>   2
Atom  12O    basis set group =>   1
Atom  13H    basis set group =>   2
Atom  14C    basis set group =>   3
Atom  15H    basis set group =>   2
Atom  16H    basis set group =>   2
Atom  17H    basis set group =>   2
Atom  18O    basis set group =>   1
Atom  19H    basis set group =>   2
Atom  20C    basis set group =>   3
Atom  21H    basis set group =>   2
Atom  22H    basis set group =>   2
Atom  23H    basis set group =>   2
Atom  24O    basis set group =>   1
Atom  25H    basis set group =>   2
Atom  26C    basis set group =>   3
Atom  27H    basis set group =>   2
Atom  28H    basis set group =>   2
Atom  29H    basis set group =>   2
Atom  30O    basis set group =>   1
Atom  31H    basis set group =>   2
Atom  32C    basis set group =>   3
Atom  33H    basis set group =>   2
Atom  34H    basis set group =>   2
Atom  35H    basis set group =>   2
Atom  36O    basis set group =>   1
Atom  37H    basis set group =>   2
Atom  38C    basis set group =>   3
Atom  39H    basis set group =>   2
Atom  40H    basis set group =>   2
Atom  41H    basis set group =>   2
Atom  42O    basis set group =>   1
Atom  43H    basis set group =>   2
Atom  44C    basis set group =>   3
Atom  45H    basis set group =>   2
Atom  46H    basis set group =>   2
Atom  47H    basis set group =>   2
Atom  48O    basis set group =>   1
Atom  49H    basis set group =>   2
Atom  50C    basis set group =>   3
Atom  51H    basis set group =>   2
Atom  52H    basis set group =>   2
Atom  53H    basis set group =>   2
Atom  54O    basis set group =>   1
Atom  55H    basis set group =>   2
Atom  56C    basis set group =>   3
Atom  57H    basis set group =>   2
Atom  58H    basis set group =>   2
Atom  59H    basis set group =>   2
Atom  60O    basis set group =>   1
Atom  61H    basis set group =>   2
Atom  62C    basis set group =>   3
Atom  63H    basis set group =>   2
Atom  64H    basis set group =>   2
Atom  65H    basis set group =>   2
Atom  66O    basis set group =>   1
Atom  67H    basis set group =>   2
Atom  68C    basis set group =>   3
Atom  69H    basis set group =>   2
Atom  70H    basis set group =>   2
Atom  71H    basis set group =>   2
Atom  72O    basis set group =>   1
Atom  73H    basis set group =>   2
Atom  74C    basis set group =>   3
Atom  75H    basis set group =>   2
Atom  76H    basis set group =>   2
Atom  77H    basis set group =>   2
Atom  78O    basis set group =>   1
Atom  79H    basis set group =>   2
Atom  80C    basis set group =>   3
Atom  81H    basis set group =>   2
Atom  82H    basis set group =>   2
Atom  83H    basis set group =>   2
Atom  84O    basis set group =>   1
Atom  85H    basis set group =>   2
Atom  86C    basis set group =>   3
Atom  87H    basis set group =>   2
Atom  88H    basis set group =>   2
Atom  89H    basis set group =>   2
Atom  90O    basis set group =>   1
Atom  91H    basis set group =>   2
Atom  92C    basis set group =>   3
Atom  93H    basis set group =>   2
Atom  94H    basis set group =>   2
Atom  95H    basis set group =>   2
Atom  96O    basis set group =>   1
Atom  97H    basis set group =>   2
Atom  98C    basis set group =>   3
Atom  99H    basis set group =>   2
Atom 100H    basis set group =>   2
Atom 101H    basis set group =>   2
Atom 102O    basis set group =>   1
Atom 103H    basis set group =>   2
Atom 104C    basis set group =>   3
Atom 105H    basis set group =>   2
Atom 106H    basis set group =>   2
Atom 107H    basis set group =>   2
Atom 108O    basis set group =>   1
Atom 109H    basis set group =>   2
Atom 110C    basis set group =>   3
Atom 111H    basis set group =>   2
Atom 112H    basis set group =>   2
Atom 113H    basis set group =>   2
Atom 114O    basis set group =>   1
Atom 115H    basis set group =>   2
Atom 116C    basis set group =>   3
Atom 117H    basis set group =>   2
Atom 118H    basis set group =>   2
Atom 119H    basis set group =>   2


           ************************************************************
           *        Program running with 24 parallel MPI-processes    *
           *              working on a common directory               *
           ************************************************************
------------------------------------------------------------------------------
                           ORCA GTO INTEGRAL CALCULATION
------------------------------------------------------------------------------

                         BASIS SET STATISTICS AND STARTUP INFO

 # of primitive gaussian shells          ... 1280
 # of primitive gaussian functions       ... 2480
 # of contracted shells                  ...  760
 # of contracted basis functions         ... 1720
 Highest angular momentum                ...    3
 Maximum contraction depth               ...    6
 Integral package used                   ... LIBINT
 Integral threshhold            Thresh   ...  2.500e-11
 Primitive cut-off              TCut     ...  2.500e-12


------------------------------ INTEGRAL EVALUATION ----------------------------


 * One electron integrals 
 Pre-screening matrix                    ... done
 Shell pair data                         ... done (   0.044 sec)



           ************************************************************
           *        Program running with 24 parallel MPI-processes    *
           *              working on a common directory               *
           ************************************************************
-------------------------------------------------------------------------------
                                 ORCA SCF
-------------------------------------------------------------------------------

------------
SCF SETTINGS
------------
Hamiltonian:
 Ab initio Hamiltonian  Method          .... Hartree-Fock(GTOs)


General Settings:
 Integral files         IntName         .... input
 Hartree-Fock type      HFTyp           .... RHF
 Total Charge           Charge          ....    0
 Multiplicity           Mult            ....    1
 Number of Electrons    NEL             ....  360
 Basis Dimension        Dim             .... 1720
 Nuclear Repulsion      ENuc            ....   5841.9788599766 Eh

Convergence Acceleration:
 DIIS                   CNVDIIS         .... on
   Start iteration      DIISMaxIt       ....    12
   Startup error        DIISStart       ....  0.200000
   # of expansion vecs  DIISMaxEq       ....     5
   Bias factor          DIISBfac        ....   1.050
   Max. coefficient     DIISMaxC        ....  10.000
 Newton-Raphson         CNVNR           .... off
 SOSCF                  CNVSOSCF        .... on
   Start iteration      SOSCFMaxIt      ....   150
   Startup grad/error   SOSCFStart      ....  0.003300
 Level Shifting         CNVShift        .... on
   Level shift para.    LevelShift      ....    0.2500
   Turn off err/grad.   ShiftErr        ....    0.0010
 Zerner damping         CNVZerner       .... off
 Static damping         CNVDamp         .... on
   Fraction old density DampFac         ....    0.7000
   Max. Damping (<1)    DampMax         ....    0.9800
   Min. Damping (>=0)   DampMin         ....    0.0000
   Turn off err/grad.   DampErr         ....    0.1000
 Fernandez-Rico         CNVRico         .... off

SCF Procedure:
 Maximum # iterations   MaxIter         ....   125
 SCF integral mode      SCFMode         .... Direct
   Integral package                     .... LIBINT
 Reset frequency        DirectResetFreq ....    20
 Integral Threshold     Thresh          ....  2.500e-11 Eh
 Primitive CutOff       TCut            ....  2.500e-12 Eh

Convergence Tolerance:
 Convergence Check Mode ConvCheckMode   .... Total+1el-Energy
 Convergence forced     ConvForced      .... 1
 Energy Change          TolE            ....  1.000e-08 Eh
 1-El. energy change                    ....  1.000e-05 Eh
 Orbital Gradient       TolG            ....  1.000e-05
 Orbital Rotation angle TolX            ....  1.000e-05
 DIIS Error             TolErr          ....  5.000e-07


Diagonalization of the overlap matrix:
Smallest eigenvalue                        ... 3.768e-04
Time for diagonalization                   ...    0.514 sec
Threshold for overlap eigenvalues          ... 1.000e-08
Number of eigenvalues below threshold      ... 0
Time for construction of square roots      ...    0.333 sec
Total time needed                          ...    0.857 sec

-------------------
DFT GRID GENERATION
-------------------

General Integration Accuracy     IntAcc      ...  4.340
Radial Grid Type                 RadialGrid  ... Gauss-Chebyshev
Angular Grid (max. acc.)         AngularGrid ... Lebedev-110
Angular grid pruning method      GridPruning ... 3 (G Style)
Weight generation scheme         WeightScheme... Becke
Basis function cutoff            BFCut       ...    1.0000e-11
Integration weight cutoff        WCut        ...    1.0000e-14
Grids for H and He will be reduced by one unit

# of grid points (after initial pruning)     ... 130960 (   0.0 sec)
# of grid points (after weights+screening)   ... 114602 (   0.4 sec)
nearest neighbour list constructed           ...    0.0 sec
Grid point re-assignment to atoms done       ...    0.0 sec
Grid point division into batches done        ...    0.1 sec
Reduced shell lists constructed in    0.3 sec

Total number of grid points                  ...   114602
Total number of batches                      ...     1846
Average number of points per batch           ...       62
Average number of grid points per atom       ...      955
Average number of shells per batch           ...   276.46 (36.38%)
Average number of basis functions per batch  ...   528.69 (30.74%)
Average number of large shells per batch     ...   150.05 (54.28%)
Average number of large basis fcns per batch ...   283.21 (53.57%)
Maximum spatial batch extension              ...   5.35,  4.36,  4.33 au
Average spatial batch extension              ...   0.08,  0.09,  0.09 au

Time for grid setup =    0.696 sec

------------------------------
INITIAL GUESS: MODEL POTENTIAL
------------------------------
Loading Hartree-Fock densities                     ... done
Calculating cut-offs                               ... done
Setting up the integral package                    ... done
Initializing the effective Hamiltonian             ... done
Starting the Coulomb interaction                   ... done (   0.7 sec)
Reading the grid                                   ... done
Mapping shells                                     ... done
Starting the XC term evaluation                    ... done (   0.2 sec)
Transforming the Hamiltonian                       ... done (   0.2 sec)
Diagonalizing the Hamiltonian                      ... done (   0.4 sec)
Back transforming the eigenvectors                 ... done (   0.1 sec)
Now organizing SCF variables                       ... done
                      ------------------
                      INITIAL GUESS DONE (   2.5 sec)
                      ------------------
--------------
SCF ITERATIONS
--------------
ITER       Energy         Delta-E        Max-DP      RMS-DP      [F,P]     Damp
               ***  Starting incremental Fock matrix formation  ***
  0  -2299.4034809478   0.000000000000 0.03779722  0.00031740  0.2912925 0.7000
  1  -2300.2308789363  -0.827397988528 0.02603385  0.00023931  0.2186277 0.7000
                               ***Turning on DIIS***
  2  -2300.7128862982  -0.482007361846 0.01569697  0.00014858  0.1632894 0.7000
  3  -2306.6487114745  -5.935825176383 0.00829569  0.00008591  0.1201653 0.7000
  4  -2305.6485167586   1.000194715964 0.01832599  0.00021256  0.0846037 0.0000
  5  -2301.8961462360   3.752370522539 0.00252073  0.00003070  0.0062896 0.0000
                      *** Initiating the SOSCF procedure ***
                           *** Shutting down DIIS ***
                      *** Re-Reading the Fockian *** 
                      *** Removing any level shift *** 
ITER      Energy       Delta-E        Grad      Rot      Max-DP    RMS-DP
  6  -2301.73659839   0.1595478497  0.000554  0.000554  0.001427  0.000016
               *** Restarting incremental Fock matrix formation ***
  7  -2301.70091517   0.0356832192  0.000298  0.000465  0.000667  0.000008
  8  -2301.70095907  -0.0000439045  0.000108  0.000321  0.000564  0.000006
  9  -2301.70096937  -0.0000102958  0.000017  0.000017  0.000089  0.000001
 10  -2301.70096974  -0.0000003767  0.000005  0.000010  0.000024  0.000000
                  ***Gradient check signals convergence***
              ***Rediagonalizing the Fockian in SOSCF/NRSCF***

               *****************************************************
               *                     SUCCESS                       *
               *           SCF CONVERGED AFTER  11 CYCLES          *
               *****************************************************


----------------
TOTAL SCF ENERGY
----------------

Total Energy       :        -2301.70096977 Eh          -62632.46756 eV

Components:
Nuclear Repulsion  :         5841.97885998 Eh          158968.32657 eV
Electronic Energy  :        -8143.67982975 Eh         -221600.79413 eV
One Electron Energy:       -14811.43084889 Eh         -403039.52353 eV
Two Electron Energy:         6667.75101914 Eh          181438.72940 eV

Virial components:
Potential Energy   :        -4601.39162214 Eh         -125210.23160 eV
Kinetic Energy     :         2299.69065236 Eh           62577.76404 eV
Virial Ratio       :            2.00087417


---------------
SCF CONVERGENCE
---------------

  Last Energy change         ...   -3.0844e-08  Tolerance :   1.0000e-08
  Last MAX-Density change    ...    1.2307e-05  Tolerance :   1.0000e-07
  Last RMS-Density change    ...    7.3192e-08  Tolerance :   5.0000e-09
  Last Orbital Gradient      ...    2.3605e-06  Tolerance :   1.0000e-05
  Last Orbital Rotation      ...    5.5777e-06  Tolerance :   1.0000e-05

             **** THE GBW FILE WAS UPDATED (input.gbw) ****
             **** DENSITY FILE WAS UPDATED (input.scfp) ****
             **** ENERGY FILE WAS UPDATED (input.en.tmp) ****
             **** THE GBW FILE WAS UPDATED (input.gbw) ****
             **** DENSITY FILE WAS UPDATED (input.scfp) ****
----------------
ORBITAL ENERGIES
----------------

  NO   OCC          E(Eh)            E(eV) 
   0   2.0000     -20.603119      -560.6394 
   1   2.0000     -20.589457      -560.2676 
   2   2.0000     -20.576293      -559.9094 
   3   2.0000     -20.569358      -559.7207 
   4   2.0000     -20.565199      -559.6075 
   5   2.0000     -20.562948      -559.5463 
   6   2.0000     -20.561188      -559.4984 
   7   2.0000     -20.558273      -559.4191 
   8   2.0000     -20.555218      -559.3359 
   9   2.0000     -20.551453      -559.2335 
  10   2.0000     -20.545013      -559.0582 
  11   2.0000     -20.542825      -558.9987 
  12   2.0000     -20.537681      -558.8587 
  13   2.0000     -20.535735      -558.8057 
  14   2.0000     -20.533773      -558.7524 
  15   2.0000     -20.520684      -558.3962 
  16   2.0000     -20.519800      -558.3721 
  17   2.0000     -20.514924      -558.2395 
  18   2.0000     -20.507316      -558.0324 
  19   2.0000     -20.487146      -557.4836 
  20   2.0000     -11.322901      -308.1118 
  21   2.0000     -11.306122      -307.6552 
  22   2.0000     -11.286152      -307.1118 
  23   2.0000     -11.278223      -306.8961 
  24   2.0000     -11.277259      -306.8698 
  25   2.0000     -11.277196      -306.8681 
  26   2.0000     -11.274028      -306.7819 
  27   2.0000     -11.272182      -306.7317 
  28   2.0000     -11.269939      -306.6706 
  29   2.0000     -11.268353      -306.6275 
  30   2.0000     -11.259395      -306.3837 
  31   2.0000     -11.251442      -306.1673 
  32   2.0000     -11.250392      -306.1387 
  33   2.0000     -11.246673      -306.0375 
  34   2.0000     -11.240179      -305.8608 
  35   2.0000     -11.236933      -305.7725 
  36   2.0000     -11.230343      -305.5932 
  37   2.0000     -11.228256      -305.5364 
  38   2.0000     -11.226310      -305.4834 
  39   2.0000     -11.223808      -305.4153 
  40   2.0000      -1.399795       -38.0904 
  41   2.0000      -1.393234       -37.9118 
  42   2.0000      -1.391991       -37.8780 
  43   2.0000      -1.370191       -37.2848 
  44   2.0000      -1.369791       -37.2739 
  45   2.0000      -1.367050       -37.1993 
  46   2.0000      -1.365404       -37.1545 
  47   2.0000      -1.360705       -37.0267 
  48   2.0000      -1.359968       -37.0066 
  49   2.0000      -1.354525       -36.8585 
  50   2.0000      -1.354209       -36.8499 
  51   2.0000      -1.352561       -36.8050 
  52   2.0000      -1.340509       -36.4771 
  53   2.0000      -1.338985       -36.4356 
  54   2.0000      -1.334843       -36.3229 
  55   2.0000      -1.323870       -36.0243 
  56   2.0000      -1.316671       -35.8284 
  57   2.0000      -1.303794       -35.4780 
  58   2.0000      -1.293791       -35.2058 
  59   2.0000      -1.292352       -35.1667 
  60   2.0000      -0.965383       -26.2694 
  61   2.0000      -0.962273       -26.1848 
  62   2.0000      -0.932865       -25.3845 
  63   2.0000      -0.932210       -25.3667 
  64   2.0000      -0.930873       -25.3303 
  65   2.0000      -0.927869       -25.2486 
  66   2.0000      -0.925940       -25.1961 
  67   2.0000      -0.917809       -24.9749 
  68   2.0000      -0.917652       -24.9706 
  69   2.0000      -0.916413       -24.9369 
  70   2.0000      -0.913372       -24.8541 
  71   2.0000      -0.911482       -24.8027 
  72   2.0000      -0.908653       -24.7257 
  73   2.0000      -0.905376       -24.6365 
  74   2.0000      -0.901308       -24.5258 
  75   2.0000      -0.899486       -24.4763 
  76   2.0000      -0.898208       -24.4415 
  77   2.0000      -0.896659       -24.3993 
  78   2.0000      -0.888859       -24.1871 
  79   2.0000      -0.884807       -24.0768 
  80   2.0000      -0.743124       -20.2214 
  81   2.0000      -0.727397       -19.7935 
  82   2.0000      -0.716584       -19.4992 
  83   2.0000      -0.710679       -19.3385 
  84   2.0000      -0.703256       -19.1366 
  85   2.0000      -0.700854       -19.0712 
  86   2.0000      -0.700788       -19.0694 
  87   2.0000      -0.697539       -18.9810 
  88   2.0000      -0.692651       -18.8480 
  89   2.0000      -0.690369       -18.7859 
  90   2.0000      -0.682128       -18.5616 
  91   2.0000      -0.680370       -18.5138 
  92   2.0000      -0.678562       -18.4646 
  93   2.0000      -0.673303       -18.3215 
  94   2.0000      -0.663792       -18.0627 
  95   2.0000      -0.662749       -18.0343 
  96   2.0000      -0.662531       -18.0284 
  97   2.0000      -0.660296       -17.9676 
  98   2.0000      -0.656393       -17.8614 
  99   2.0000      -0.655119       -17.8267 
 100   2.0000      -0.651751       -17.7350 
 101   2.0000      -0.647485       -17.6190 
 102   2.0000      -0.643774       -17.5180 
 103   2.0000      -0.642656       -17.4876 
 104   2.0000      -0.638226       -17.3670 
 105   2.0000      -0.630826       -17.1657 
 106   2.0000      -0.629731       -17.1358 
 107   2.0000      -0.628607       -17.1053 
 108   2.0000      -0.627803       -17.0834 
 109   2.0000      -0.621829       -16.9208 
 110   2.0000      -0.619937       -16.8694 
 111   2.0000      -0.615626       -16.7520 
 112   2.0000      -0.614773       -16.7288 
 113   2.0000      -0.614029       -16.7086 
 114   2.0000      -0.612102       -16.6561 
 115   2.0000      -0.610868       -16.6226 
 116   2.0000      -0.608932       -16.5699 
 117   2.0000      -0.605624       -16.4799 
 118   2.0000      -0.604563       -16.4510 
 119   2.0000      -0.603904       -16.4331 
 120   2.0000      -0.598640       -16.2898 
 121   2.0000      -0.597489       -16.2585 
 122   2.0000      -0.596579       -16.2338 
 123   2.0000      -0.595426       -16.2024 
 124   2.0000      -0.593819       -16.1586 
 125   2.0000      -0.587870       -15.9968 
 126   2.0000      -0.584578       -15.9072 
 127   2.0000      -0.583692       -15.8831 
 128   2.0000      -0.582510       -15.8509 
 129   2.0000      -0.580930       -15.8079 
 130   2.0000      -0.579502       -15.7691 
 131   2.0000      -0.575850       -15.6697 
 132   2.0000      -0.575040       -15.6476 
 133   2.0000      -0.573015       -15.5925 
 134   2.0000      -0.572040       -15.5660 
 135   2.0000      -0.564103       -15.3500 
 136   2.0000      -0.561304       -15.2739 
 137   2.0000      -0.559379       -15.2215 
 138   2.0000      -0.554387       -15.0856 
 139   2.0000      -0.542219       -14.7545 
 140   2.0000      -0.538028       -14.6405 
 141   2.0000      -0.536748       -14.6057 
 142   2.0000      -0.513106       -13.9623 
 143   2.0000      -0.511914       -13.9299 
 144   2.0000      -0.510870       -13.9015 
 145   2.0000      -0.508294       -13.8314 
 146   2.0000      -0.505382       -13.7522 
 147   2.0000      -0.503565       -13.7027 
 148   2.0000      -0.500273       -13.6131 
 149   2.0000      -0.497322       -13.5328 
 150   2.0000      -0.496455       -13.5092 
 151   2.0000      -0.495877       -13.4935 
 152   2.0000      -0.494101       -13.4452 
 153   2.0000      -0.492066       -13.3898 
 154   2.0000      -0.485308       -13.2059 
 155   2.0000      -0.478300       -13.0152 
 156   2.0000      -0.474323       -12.9070 
 157   2.0000      -0.472084       -12.8461 
 158   2.0000      -0.468862       -12.7584 
 159   2.0000      -0.464723       -12.6457 
 160   2.0000      -0.459224       -12.4961 
 161   2.0000      -0.459072       -12.4920 
 162   2.0000      -0.456953       -12.4343 
 163   2.0000      -0.452439       -12.3115 
 164   2.0000      -0.451933       -12.2977 
 165   2.0000      -0.451548       -12.2872 
 166   2.0000      -0.449737       -12.2380 
 167   2.0000      -0.449241       -12.2245 
 168   2.0000      -0.445203       -12.1146 
 169   2.0000      -0.444209       -12.0875 
 170   2.0000      -0.439192       -11.9510 
 171   2.0000      -0.438295       -11.9266 
 172   2.0000      -0.434999       -11.8369 
 173   2.0000      -0.431604       -11.7445 
 174   2.0000      -0.424217       -11.5435 
 175   2.0000      -0.418022       -11.3750 
 176   2.0000      -0.414811       -11.2876 
 177   2.0000      -0.414151       -11.2696 
 178   2.0000      -0.408773       -11.1233 
 179   2.0000      -0.398307       -10.8385 
 180   0.0000       0.078305         2.1308 
 181   0.0000       0.102248         2.7823 
 182   0.0000       0.107541         2.9263 
 183   0.0000       0.113318         3.0835 
 184   0.0000       0.115379         3.1396 
 185   0.0000       0.124782         3.3955 
 186   0.0000       0.127701         3.4749 
 187   0.0000       0.132632         3.6091 
 188   0.0000       0.134843         3.6693 
 189   0.0000       0.136153         3.7049 
 190   0.0000       0.141709         3.8561 
 191   0.0000       0.144066         3.9202 
 192   0.0000       0.148727         4.0471 
 193   0.0000       0.153186         4.1684 
 194   0.0000       0.159948         4.3524 
 195   0.0000       0.166756         4.5377 
 196   0.0000       0.170658         4.6438 
 197   0.0000       0.172740         4.7005 
 198   0.0000       0.177388         4.8270 
 199   0.0000       0.178429         4.8553 
 200   0.0000       0.183594         4.9958 
 201   0.0000       0.184601         5.0232 
 202   0.0000       0.185823         5.0565 
 203   0.0000       0.187528         5.1029 
 204   0.0000       0.192434         5.2364 
 205   0.0000       0.196139         5.3372 
 206   0.0000       0.197968         5.3870 
 207   0.0000       0.199237         5.4215 
 208   0.0000       0.199960         5.4412 
 209   0.0000       0.201615         5.4862 
 210   0.0000       0.205229         5.5846 
 211   0.0000       0.205657         5.5962 
 212   0.0000       0.210934         5.7398 
 213   0.0000       0.212723         5.7885 
 214   0.0000       0.215468         5.8632 
 215   0.0000       0.216890         5.9019 
 216   0.0000       0.219489         5.9726 
 217   0.0000       0.219578         5.9750 
 218   0.0000       0.224213         6.1012 
 219   0.0000       0.227324         6.1858 
 220   0.0000       0.228204         6.2097 
 221   0.0000       0.232811         6.3351 
 222   0.0000       0.237385         6.4596 
 223   0.0000       0.238439         6.4882 
 224   0.0000       0.240250         6.5375 
 225   0.0000       0.242360         6.5949 
 226   0.0000       0.243916         6.6373 
 227   0.0000       0.247400         6.7321 
 228   0.0000       0.248082         6.7507 
 229   0.0000       0.249315         6.7842 
 230   0.0000       0.251595         6.8463 
 231   0.0000       0.252339         6.8665 
 232   0.0000       0.253336         6.8936 
 233   0.0000       0.255161         6.9433 
 234   0.0000       0.258161         7.0249 
 235   0.0000       0.260077         7.0771 
 236   0.0000       0.260471         7.0878 
 237   0.0000       0.264073         7.1858 
 238   0.0000       0.266178         7.2431 
 239   0.0000       0.266364         7.2481 
 240   0.0000       0.268963         7.3188 
 241   0.0000       0.269974         7.3464 
 242   0.0000       0.272611         7.4181 
 243   0.0000       0.276206         7.5159 
 244   0.0000       0.279916         7.6169 
 245   0.0000       0.283060         7.7024 
 246   0.0000       0.285194         7.7605 
 247   0.0000       0.288358         7.8466 
 248   0.0000       0.290060         7.8929 
 249   0.0000       0.293770         7.9939 
 250   0.0000       0.294271         8.0075 
 251   0.0000       0.296300         8.0627 
 252   0.0000       0.298503         8.1227 
 253   0.0000       0.302713         8.2373 
 254   0.0000       0.304338         8.2815 
 255   0.0000       0.307075         8.3559 
 256   0.0000       0.308336         8.3902 
 257   0.0000       0.310887         8.4597 
 258   0.0000       0.315663         8.5896 
 259   0.0000       0.317015         8.6264 
 260   0.0000       0.318126         8.6566 
 261   0.0000       0.320206         8.7132 
 262   0.0000       0.322569         8.7775 
 263   0.0000       0.326178         8.8758 
 264   0.0000       0.326861         8.8943 
 265   0.0000       0.328232         8.9317 
 266   0.0000       0.328756         8.9459 
 267   0.0000       0.331626         9.0240 
 268   0.0000       0.336922         9.1681 
 269   0.0000       0.340734         9.2718 
 270   0.0000       0.343866         9.3571 
 271   0.0000       0.345043         9.3891 
 272   0.0000       0.348516         9.4836 
 273   0.0000       0.352500         9.5920 
 274   0.0000       0.353965         9.6319 
 275   0.0000       0.355102         9.6628 
 276   0.0000       0.357939         9.7400 
 277   0.0000       0.361594         9.8395 
 278   0.0000       0.363756         9.8983 
 279   0.0000       0.368262        10.0209 
 280   0.0000       0.370209        10.0739 
 281   0.0000       0.373730        10.1697 
 282   0.0000       0.374208        10.1827 
 283   0.0000       0.379164        10.3176 
 284   0.0000       0.382315        10.4033 
 285   0.0000       0.385599        10.4927 
 286   0.0000       0.388306        10.5663 
 287   0.0000       0.396110        10.7787 
 288   0.0000       0.399020        10.8579 
 289   0.0000       0.399872        10.8811 
 290   0.0000       0.403616        10.9830 
 291   0.0000       0.405662        11.0386 
 292   0.0000       0.410441        11.1687 
 293   0.0000       0.414355        11.2752 
 294   0.0000       0.416751        11.3404 
 295   0.0000       0.421130        11.4595 
 296   0.0000       0.422777        11.5044 
 297   0.0000       0.426419        11.6034 
 298   0.0000       0.431334        11.7372 
 299   0.0000       0.433594        11.7987 
 300   0.0000       0.435976        11.8635 
 301   0.0000       0.442555        12.0425 
 302   0.0000       0.445222        12.1151 
 303   0.0000       0.448607        12.2072 
 304   0.0000       0.450500        12.2587 
 305   0.0000       0.452050        12.3009 
 306   0.0000       0.454932        12.3793 
 307   0.0000       0.456091        12.4109 
 308   0.0000       0.463422        12.6104 
 309   0.0000       0.465250        12.6601 
 310   0.0000       0.468311        12.7434 
 311   0.0000       0.477138        12.9836 
 312   0.0000       0.477987        13.0067 
 313   0.0000       0.482812        13.1380 
 314   0.0000       0.487562        13.2672 
 315   0.0000       0.489895        13.3307 
 316   0.0000       0.492515        13.4020 
 317   0.0000       0.495194        13.4749 
 318   0.0000       0.496752        13.5173 
 319   0.0000       0.499415        13.5898 
 320   0.0000       0.501172        13.6376 
 321   0.0000       0.505684        13.7604 
 322   0.0000       0.506255        13.7759 
 323   0.0000       0.510789        13.8993 
 324   0.0000       0.511845        13.9280 
 325   0.0000       0.515124        14.0172 
 326   0.0000       0.520531        14.1644 
 327   0.0000       0.522091        14.2068 
 328   0.0000       0.522990        14.2313 
 329   0.0000       0.526965        14.3394 
 330   0.0000       0.528727        14.3874 
 331   0.0000       0.534075        14.5329 
 332   0.0000       0.536752        14.6058 
 333   0.0000       0.539342        14.6762 
 334   0.0000       0.540595        14.7103 
 335   0.0000       0.545994        14.8573 
 336   0.0000       0.547779        14.9058 
 337   0.0000       0.548566        14.9272 
 338   0.0000       0.552511        15.0346 
 339   0.0000       0.557180        15.1617 
 340   0.0000       0.558128        15.1874 
 341   0.0000       0.560378        15.2487 
 342   0.0000       0.564753        15.3677 
 343   0.0000       0.566239        15.4081 
 344   0.0000       0.567906        15.4535 
 345   0.0000       0.570550        15.5254 
 346   0.0000       0.572192        15.5701 
 347   0.0000       0.574251        15.6262 
 348   0.0000       0.574410        15.6305 
 349   0.0000       0.579809        15.7774 
 350   0.0000       0.580901        15.8071 
 351   0.0000       0.582683        15.8556 
 352   0.0000       0.583599        15.8805 
 353   0.0000       0.586474        15.9588 
 354   0.0000       0.589480        16.0406 
 355   0.0000       0.590402        16.0657 
 356   0.0000       0.593461        16.1489 
 357   0.0000       0.594470        16.1763 
 358   0.0000       0.598617        16.2892 
 359   0.0000       0.599537        16.3142 
 360   0.0000       0.602364        16.3912 
 361   0.0000       0.604335        16.4448 
 362   0.0000       0.605508        16.4767 
 363   0.0000       0.607872        16.5410 
 364   0.0000       0.610557        16.6141 
 365   0.0000       0.611310        16.6346 
 366   0.0000       0.612703        16.6725 
 367   0.0000       0.615393        16.7457 
 368   0.0000       0.619359        16.8536 
 369   0.0000       0.620974        16.8976 
 370   0.0000       0.623454        16.9651 
 371   0.0000       0.627492        17.0749 
 372   0.0000       0.630581        17.1590 
 373   0.0000       0.632181        17.2025 
 374   0.0000       0.633244        17.2314 
 375   0.0000       0.635201        17.2847 
 376   0.0000       0.638830        17.3834 
 377   0.0000       0.640154        17.4195 
 378   0.0000       0.642240        17.4762 
 379   0.0000       0.644772        17.5451 
 380   0.0000       0.645828        17.5739 
 381   0.0000       0.648422        17.6445 
 382   0.0000       0.649153        17.6644 
 383   0.0000       0.651275        17.7221 
 384   0.0000       0.653275        17.7765 
 385   0.0000       0.658455        17.9175 
 386   0.0000       0.659205        17.9379 
 387   0.0000       0.660691        17.9783 
 388   0.0000       0.663984        18.0679 
 389   0.0000       0.664570        18.0839 
 390   0.0000       0.665743        18.1158 
 391   0.0000       0.670188        18.2367 
 392   0.0000       0.671160        18.2632 
 393   0.0000       0.671573        18.2744 
 394   0.0000       0.675288        18.3755 
 395   0.0000       0.678458        18.4618 
 396   0.0000       0.679594        18.4927 
 397   0.0000       0.681818        18.5532 
 398   0.0000       0.685023        18.6404 
 399   0.0000       0.687049        18.6956 
 400   0.0000       0.687546        18.7091 
[...]
  VA   - Mayer's total valence
  BVA  - Mayer's bonded valence
  FA   - Mayer's free valence

  ATOM       NA         ZA         QA         VA         BVA        FA
  0 O      8.6082     8.0000    -0.6082     1.7254     1.7254    -0.0000
  1 H      0.6349     1.0000     0.3651     0.8785     0.8785    -0.0000
  2 C      6.0554     6.0000    -0.0554     3.8696     3.8696    -0.0000
  3 H      0.8730     1.0000     0.1270     0.9732     0.9732    -0.0000
  4 H      0.9025     1.0000     0.0975     0.9646     0.9646     0.0000
  5 H      0.9239     1.0000     0.0761     0.9595     0.9595    -0.0000
  6 O      8.6017     8.0000    -0.6017     1.7125     1.7125     0.0000
  7 H      0.5953     1.0000     0.4047     0.8403     0.8403    -0.0000
  8 C      6.0730     6.0000    -0.0730     3.8733     3.8733     0.0000
  9 H      0.9068     1.0000     0.0932     0.9747     0.9747    -0.0000
 10 H      0.9016     1.0000     0.0984     0.9738     0.9738    -0.0000
 11 H      0.9226     1.0000     0.0774     0.9632     0.9632    -0.0000
 12 O      8.5793     8.0000    -0.5793     1.7692     1.7692     0.0000
 13 H      0.6677     1.0000     0.3323     0.9040     0.9040    -0.0000
 14 C      6.0511     6.0000    -0.0511     3.8436     3.8436     0.0000
 15 H      0.8735     1.0000     0.1265     0.9562     0.9562     0.0000
 16 H      0.8864     1.0000     0.1136     0.9585     0.9585    -0.0000
 17 H      0.9206     1.0000     0.0794     0.9573     0.9573     0.0000
 18 O      8.5915     8.0000    -0.5915     1.7423     1.7423     0.0000
 19 H      0.6183     1.0000     0.3817     0.8821     0.8821     0.0000
 20 C      6.0385     6.0000    -0.0385     3.9259     3.9259     0.0000
 21 H      0.8954     1.0000     0.1046     0.9688     0.9688    -0.0000
 22 H      0.9182     1.0000     0.0818     0.9536     0.9536     0.0000
 23 H      0.9513     1.0000     0.0487     0.9699     0.9699     0.0000
 24 O      8.5375     8.0000    -0.5375     1.8019     1.8019    -0.0000
 25 H      0.6736     1.0000     0.3264     0.9031     0.9031     0.0000
 26 C      6.0967     6.0000    -0.0967     3.8734     3.8734    -0.0000
 27 H      0.8867     1.0000     0.1133     0.9478     0.9478    -0.0000
 28 H      0.9437     1.0000     0.0563     0.9630     0.9630    -0.0000
 29 H      0.8566     1.0000     0.1434     0.9648     0.9648     0.0000
 30 O      8.5611     8.0000    -0.5611     1.7718     1.7718     0.0000
 31 H      0.6728     1.0000     0.3272     0.9022     0.9022     0.0000
 32 C      6.1087     6.0000    -0.1087     3.8032     3.8032    -0.0000
 33 H      0.8560     1.0000     0.1440     0.9664     0.9664    -0.0000
 34 H      0.9062     1.0000     0.0938     0.9861     0.9861    -0.0000
 35 H      0.8900     1.0000     0.1100     0.9708     0.9708    -0.0000
 36 O      8.5439     8.0000    -0.5439     1.8050     1.8050     0.0000
 37 H      0.6795     1.0000     0.3205     0.9221     0.9221     0.0000
 38 C      6.0701     6.0000    -0.0701     3.8753     3.8753    -0.0000
 39 H      0.9031     1.0000     0.0969     0.9579     0.9579     0.0000
 40 H      0.9012     1.0000     0.0988     0.9595     0.9595     0.0000
 41 H      0.9049     1.0000     0.0951     0.9714     0.9714    -0.0000
 42 O      8.5558     8.0000    -0.5558     1.7863     1.7863     0.0000
 43 H      0.6490     1.0000     0.3510     0.9048     0.9048     0.0000
 44 C      6.0493     6.0000    -0.0493     3.9055     3.9055    -0.0000
 45 H      0.8956     1.0000     0.1044     0.9577     0.9577    -0.0000
 46 H      0.9074     1.0000     0.0926     0.9469     0.9469    -0.0000
 47 H      0.9286     1.0000     0.0714     0.9642     0.9642    -0.0000
 48 O      8.5756     8.0000    -0.5756     1.7547     1.7547    -0.0000
 49 H      0.6465     1.0000     0.3535     0.8946     0.8946     0.0000
 50 C      6.0338     6.0000    -0.0338     3.8942     3.8942    -0.0000
 51 H      0.8946     1.0000     0.1054     0.9702     0.9702    -0.0000
 52 H      0.9464     1.0000     0.0536     0.9312     0.9312    -0.0000
 53 H      0.9090     1.0000     0.0910     0.9682     0.9682    -0.0000
 54 O      8.6225     8.0000    -0.6225     1.7195     1.7195    -0.0000
 55 H      0.6409     1.0000     0.3591     0.8822     0.8822     0.0000
 56 C      6.0377     6.0000    -0.0377     3.7982     3.7982    -0.0000
 57 H      0.9366     1.0000     0.0634     0.9839     0.9839     0.0000
 58 H      0.8797     1.0000     0.1203     0.9650     0.9650     0.0000
 59 H      0.8935     1.0000     0.1065     0.9685     0.9685    -0.0000
 60 O      8.5657     8.0000    -0.5657     1.7477     1.7477     0.0000
 61 H      0.6616     1.0000     0.3384     0.8931     0.8931     0.0000
 62 C      6.0882     6.0000    -0.0882     3.8882     3.8882     0.0000
 63 H      0.8893     1.0000     0.1107     0.9647     0.9647     0.0000
 64 H      0.9044     1.0000     0.0956     0.9661     0.9661     0.0000
 65 H      0.8879     1.0000     0.1121     0.9407     0.9407     0.0000
 66 O      8.5763     8.0000    -0.5763     1.7495     1.7495    -0.0000
 67 H      0.6671     1.0000     0.3329     0.9027     0.9027    -0.0000
 68 C      6.1141     6.0000    -0.1141     3.8372     3.8372    -0.0000
 69 H      0.8685     1.0000     0.1315     0.9638     0.9638    -0.0000
 70 H      0.8908     1.0000     0.1092     0.9656     0.9656    -0.0000
 71 H      0.8763     1.0000     0.1237     0.9663     0.9663    -0.0000
 72 O      8.5875     8.0000    -0.5875     1.7569     1.7569     0.0000
 73 H      0.6224     1.0000     0.3776     0.8782     0.8782    -0.0000
 74 C      6.0517     6.0000    -0.0517     3.9375     3.9375    -0.0000
 75 H      0.9061     1.0000     0.0939     0.9598     0.9598    -0.0000
 76 H      0.9261     1.0000     0.0739     0.9619     0.9619    -0.0000
 77 H      0.9179     1.0000     0.0821     0.9568     0.9568    -0.0000
 78 O      8.5435     8.0000    -0.5435     1.7777     1.7777    -0.0000
 79 H      0.6484     1.0000     0.3516     0.8800     0.8800     0.0000
 80 C      6.0737     6.0000    -0.0737     3.9216     3.9216    -0.0000
 81 H      0.9201     1.0000     0.0799     0.9561     0.9561    -0.0000
 82 H      0.9191     1.0000     0.0809     0.9508     0.9508    -0.0000
 83 H      0.8929     1.0000     0.1071     0.9682     0.9682    -0.0000
 84 O      8.5666     8.0000    -0.5666     1.7760     1.7760    -0.0000
 85 H      0.6425     1.0000     0.3575     0.8854     0.8854    -0.0000
 86 C      6.0052     6.0000    -0.0052     3.9171     3.9171    -0.0000
 87 H      0.9064     1.0000     0.0936     0.9673     0.9673    -0.0000
 88 H      0.9651     1.0000     0.0349     0.9771     0.9771    -0.0000
 89 H      0.9268     1.0000     0.0732     0.9624     0.9624    -0.0000
 90 O      8.5513     8.0000    -0.5513     1.7677     1.7677     0.0000
 91 H      0.6360     1.0000     0.3640     0.8846     0.8846     0.0000
 92 C      6.0806     6.0000    -0.0806     3.9222     3.9222    -0.0000
 93 H      0.9380     1.0000     0.0620     0.9621     0.9621     0.0000
 94 H      0.8847     1.0000     0.1153     0.9619     0.9619    -0.0000
 95 H      0.9157     1.0000     0.0843     0.9645     0.9645     0.0000
 96 O      8.5408     8.0000    -0.5408     1.8023     1.8023    -0.0000
 97 H      0.6810     1.0000     0.3190     0.9049     0.9049     0.0000
 98 C      6.0688     6.0000    -0.0688     3.8917     3.8917     0.0000
 99 H      0.8852     1.0000     0.1148     0.9691     0.9691     0.0000
100 H      0.8971     1.0000     0.1029     0.9639     0.9639     0.0000
101 H      0.9289     1.0000     0.0711     0.9691     0.9691     0.0000
102 O      8.5805     8.0000    -0.5805     1.7522     1.7522     0.0000
103 H      0.6690     1.0000     0.3310     0.9039     0.9039    -0.0000
104 C      6.0568     6.0000    -0.0568     3.8447     3.8447    -0.0000
105 H      0.8328     1.0000     0.1672     0.9745     0.9745    -0.0000
106 H      0.9001     1.0000     0.0999     0.9751     0.9751    -0.0000
107 H      0.9709     1.0000     0.0291     0.9659     0.9659    -0.0000
108 O      8.5629     8.0000    -0.5629     1.7988     1.7988    -0.0000
109 H      0.6759     1.0000     0.3241     0.9109     0.9109     0.0000
110 C      6.1154     6.0000    -0.1154     3.8510     3.8510    -0.0000
111 H      0.8910     1.0000     0.1090     0.9563     0.9563    -0.0000
112 H      0.8662     1.0000     0.1338     0.9593     0.9593    -0.0000
113 H      0.8781     1.0000     0.1219     0.9631     0.9631    -0.0000
114 O      8.5280     8.0000    -0.5280     1.8138     1.8138     0.0000
115 H      0.6757     1.0000     0.3243     0.9049     0.9049     0.0000
116 C      6.0829     6.0000    -0.0829     3.8901     3.8901     0.0000
117 H      0.9164     1.0000     0.0836     0.9648     0.9648     0.0000
118 H      0.9075     1.0000     0.0925     0.9623     0.9623    -0.0000
119 H      0.8838     1.0000     0.1162     0.9648     0.9648     0.0000

  Mayer bond orders larger than 0.100000
B(  0-O ,  1-H ) :   0.8550 B(  0-O ,  2-C ) :   0.8970 B(  2-C ,  3-H ) :   0.9916 
B(  2-C ,  4-H ) :   0.9938 B(  2-C ,  5-H ) :   0.9937 B(  6-O ,  7-H ) :   0.8198 
B(  6-O ,  8-C ) :   0.9114 B(  8-C ,  9-H ) :   0.9961 B(  8-C , 10-H ) :   0.9847 
B(  8-C , 11-H ) :   0.9893 B( 12-O , 13-H ) :   0.8800 B( 12-O , 14-C ) :   0.8745 
B( 14-C , 15-H ) :   0.9886 B( 14-C , 16-H ) :   0.9848 B( 14-C , 17-H ) :   0.9940 
B( 18-O , 19-H ) :   0.8234 B( 18-O , 20-C ) :   0.9456 B( 20-C , 21-H ) :   0.9896 
B( 20-C , 22-H ) :   0.9864 B( 20-C , 23-H ) :   0.9968 B( 24-O , 25-H ) :   0.8952 
B( 24-O , 26-C ) :   0.9225 B( 26-C , 27-H ) :   0.9849 B( 26-C , 28-H ) :   0.9934 
B( 26-C , 29-H ) :   0.9781 B( 30-O , 31-H ) :   0.8974 B( 30-O , 32-C ) :   0.8627 
B( 32-C , 33-H ) :   0.9850 B( 32-C , 34-H ) :   0.9794 B( 32-C , 35-H ) :   0.9907 
B( 36-O , 37-H ) :   0.8926 B( 36-O , 38-C ) :   0.9251 B( 38-C , 39-H ) :   0.9820 
B( 38-C , 40-H ) :   0.9883 B( 38-C , 41-H ) :   0.9918 B( 42-O , 43-H ) :   0.8620 
B( 42-O , 44-C ) :   0.9591 B( 44-C , 45-H ) :   0.9854 B( 44-C , 46-H ) :   0.9716 
B( 44-C , 47-H ) :   0.9849 B( 48-O , 49-H ) :   0.8655 B( 48-O , 50-C ) :   0.9151 
B( 50-C , 51-H ) :   0.9896 B( 50-C , 52-H ) :   0.9908 B( 50-C , 53-H ) :   1.0014 
B( 54-O , 55-H ) :   0.8645 B( 54-O , 56-C ) :   0.8666 B( 56-C , 57-H ) :   0.9750 
B( 56-C , 58-H ) :   0.9922 B( 56-C , 59-H ) :   0.9929 B( 60-O , 61-H ) :   0.8807 
B( 60-O , 62-C ) :   0.8832 B( 62-C , 63-H ) :   0.9899 B( 62-C , 64-H ) :   0.9843 
B( 62-C , 65-H ) :   0.9987 B( 66-O , 67-H ) :   0.8929 B( 66-O , 68-C ) :   0.8708 
B( 68-C , 69-H ) :   0.9858 B( 68-C , 70-H ) :   0.9920 B( 68-C , 71-H ) :   0.9865 
B( 72-O , 73-H ) :   0.8398 B( 72-O , 74-C ) :   0.9527 B( 74-C , 75-H ) :   0.9883 
B( 74-C , 76-H ) :   0.9921 B( 74-C , 77-H ) :   0.9897 B( 78-O , 79-H ) :   0.8711 
B( 78-O , 80-C ) :   0.9366 B( 80-C , 81-H ) :   0.9901 B( 80-C , 82-H ) :   0.9936 
B( 80-C , 83-H ) :   0.9924 B( 84-O , 85-H ) :   0.8616 B( 84-O , 86-C ) :   0.9453 
B( 86-C , 87-H ) :   0.9847 B( 86-C , 88-H ) :   0.9990 B( 86-C , 89-H ) :   0.9966 
B( 90-O , 91-H ) :   0.8487 B( 90-O , 92-C ) :   0.9551 B( 92-C , 93-H ) :   0.9872 
B( 92-C , 94-H ) :   0.9903 B( 92-C , 95-H ) :   0.9903 B( 96-O , 97-H ) :   0.8922 
B( 96-O , 98-C ) :   0.9285 B( 98-C , 99-H ) :   0.9807 B( 98-C ,100-H ) :   0.9933 
B( 98-C ,101-H ) :   0.9826 B(102-O ,103-H ) :   0.8875 B(102-O ,104-C ) :   0.8652 
B(104-C ,105-H ) :   0.9851 B(104-C ,106-H ) :   0.9918 B(104-C ,107-H ) :   0.9913 
B(108-O ,109-H ) :   0.9014 B(108-O ,110-C ) :   0.8991 B(110-C ,111-H ) :   0.9814 
B(110-C ,112-H ) :   0.9834 B(110-C ,113-H ) :   0.9831 B(114-O ,115-H ) :   0.8959 
B(114-O ,116-C ) :   0.9378 B(116-C ,117-H ) :   0.9798 B(116-C ,118-H ) :   0.9822 
B(116-C ,119-H ) :   0.9877 

-------
TIMINGS
-------

Total SCF time: 0 days 0 hours 14 min 4 sec 

Total time                  ....     844.533 sec
Sum of individual times     ....     839.845 sec  ( 99.4%)

Fock matrix formation       ....     825.811 sec  ( 97.8%)
Diagonalization             ....       3.596 sec  (  0.4%)
Density matrix formation    ....       0.478 sec  (  0.1%)
Population analysis         ....       0.890 sec  (  0.1%)
Initial guess               ....       1.769 sec  (  0.2%)
Orbital Transformation      ....       0.000 sec  (  0.0%)
Orbital Orthonormalization  ....       0.000 sec  (  0.0%)
DIIS solution               ....       3.789 sec  (  0.4%)
SOSCF solution              ....       2.816 sec  (  0.3%)


           ************************************************************
           *        Program running with 24 parallel MPI-processes    *
           *              working on a common directory               *
           ************************************************************

------------------------------------------------------------------------------
                                ORCA  MP2 
------------------------------------------------------------------------------

Freezing NCore=80 chemical core electrons

-------------
RI-MP2 ENERGY
-------------
Dimension of the basis                    ... 1720
Memory devoted to MP2                     ... 8000 MB   
Data format for buffers                   ... DOUBLE
Compression type for matrix containers    ... UNCOMPRESSED
Overall scaling of the MP2 energy         ...   1.000e+00
Calculating two index integrals           ... done (    0.119 sec)
Cholesky decomposition of V**-1           ... done (    1.707 sec)

-----------------
RI-TRANSFORMATION (AUX index driven)
-----------------

Dimension of the orbital-basis         ... 1720
Dimension of the aux-basis             ... 4240
Transformation of internal/external MOs...   40- 179 to  180-1719
Number Format for Storage              ... Double (8 Byte)
Integral mode                          ... Direct

First Phase: integral generation and transformation of MO indices
  Aux angular momentum 0               ... done (    1.984 sec)
  Aux angular momentum 1               ... done (    3.142 sec)
  Aux angular momentum 2               ... done (    2.994 sec)
  Aux angular momentum 3               ... done (    1.932 sec)
  Aux angular momentum 4               ... done (    0.983 sec)
Closing buffer VIA ( 6.81 GB; CompressionRatio= 1.00)
  Phase 1 completed in    11.550 sec
Second Phase: sorting and transformation of aux index

IA-Transformation
Memory available                       ... 7635 MB 
Max. # MO pairs treated in a batch     ... 6    
# of internal orbitals                 ... 140
# batches for internal orbitals        ... 1
Closing buffer IAV ( 0.29 GB; CompressionRatio= 1.00)
(ia|v) transformation done in     9.282 sec

  Phase 2 completed in    20.476 sec
RI-Integral transformation completed in    32.039 sec
Opening buffers                              ... done

Starting loop over batches of integrals:

Operator 0  - window                       ... ( 40-179)x(180-1719)
Operator 0  - Memory available             ...  8000 MB
Operator 0  - Memory needed per MO         ...  49.8 MB
Operator 0  - Number of orbitals per batch ... 6
Operator 0  - Number of batches            ... 1

OPERATOR  0   PASS   0:  MOs    40 ...   45 +   46 ...   51 +   52 ...   57 +   58 ...   63
                            +   64 ...   69 +   70 ...   75 +   76 ...   81 +   82 ...   87
                            +   88 ...   93 +   94 ...   99 +  100 ...  105 +  106 ...  111
                            +  112 ...  117 +  118 ...  123 +  124 ...  129 +  130 ...  135
                            +  136 ...  141 +  142 ...  147 +  148 ...  153 +  154 ...  159
                            +  160 ...  165 +  166 ...  171 +  172 ...  177 +  178 ...  179
  Reading integrals       ... ok
  Internal MO  42
  Internal MO  45
Time spent in pair loops =     8.210 sec
Deleting buffer (Ka|jb)[aa] ...done

-----------------------------------------------
 RI-MP2 CORRELATION ENERGY:     -8.423686962 Eh
-----------------------------------------------


-------
TIMINGS
-------

Total time                :  328.802 sec
Integral trafo            :   32.055 sec (  9.7%)
I/O of integrals          :    0.326 sec (  0.1%)
K(i,j) Operators          :    7.063 sec (  2.1%)
T(i,j) pair energies      :    0.517 sec (  0.2%)
V-calculation             :    0.119 sec (  0.0%)
V**(-1/2)                 :    1.707 sec (  0.5%)
Gamma(ia|P)               :    0.000 sec (  0.0%)
Gamma-Trafo               :    0.000 sec (  0.0%)
D(virtual)                :    0.000 sec (  0.0%)
D(internal)               :    0.000 sec (  0.0%)
W(virtual)                :    0.000 sec (  0.0%)
W(internal)               :    0.000 sec (  0.0%)
L(virtual)                :    0.000 sec (  0.0%)
L(internal)               :    0.000 sec (  0.0%)
G(D)                      :    0.000 sec (  0.0%)
G(Z)                      :    0.000 sec (  0.0%)
Z-Vector Solution         :    0.000 sec (  0.0%)
3-Index Derivative        :    0.000 sec (  0.0%)
2-Index Derivative        :    0.000 sec (  0.0%)
Separable Gradient        :    0.000 sec (  0.0%)


---------------------------------------
MP2 TOTAL ENERGY:    -2310.124656737 Eh
---------------------------------------

-------------------------   --------------------
FINAL SINGLE POINT ENERGY     -2310.124656737104
-------------------------   --------------------


                            ***************************************
                            *     ORCA property calculations      *
                            ***************************************


  WARNING: The energy has been calculated at the MP2 level but the densities
           used in the property calculations are still SCF densities
           MP2 response densities have not been calculated 
           use %mp2 Density relaxed end
           or  %mp2 Density unrelaxed end

                                    ---------------------
                                    Active property flags
                                    ---------------------
   (+) Dipole Moment


------------------------------------------------------------------------------
                       ORCA ELECTRIC PROPERTIES CALCULATION
------------------------------------------------------------------------------

Dipole Moment Calculation                       ... on
Quadrupole Moment Calculation                   ... off
Polarizability Calculation                      ... off
GBWName                                         ... input.gbw
Electron density file                           ... input.scfp
The origin for moment calculation is the CENTER OF MASS  = ( 0.378843,  0.723081  0.250672)

-------------
DIPOLE MOMENT
-------------
                                X             Y             Z
Electronic contribution:      7.04293       4.24417      -4.28728
Nuclear contribution   :    -11.68893      -2.61057       3.45987
                        -----------------------------------------
Total Dipole Moment    :     -4.64600       1.63359      -0.82741
                        -----------------------------------------
Magnitude (a.u.)       :      4.99385
Magnitude (Debye)      :     12.69335



--------------------
Rotational spectrum 
--------------------
 
Rotational constants in cm-1:     0.001571     0.001376     0.001228 
Rotational constants in MHz :    47.092777    41.241838    36.824035 

 Dipole components along the rotational axes: 
x,y,z [a.u.] :     4.250217    -1.884455    -1.822908 
x,y,z [Debye]:    10.803194    -4.789904    -4.633463 

 

Timings for individual modules:

Sum of individual times         ...     1185.191 sec (=  19.753 min)
GTO integral calculation        ...        6.484 sec (=   0.108 min)   0.5 %
SCF iterations                  ...      847.945 sec (=  14.132 min)  71.5 %
MP2 module                      ...      330.763 sec (=   5.513 min)  27.9 %
                             ****ORCA TERMINATED NORMALLY****
TOTAL RUN TIME: 0 days 0 hours 19 minutes 47 seconds 93 msec
