
                                 *****************
                                 * O   R   C   A *
                                 *****************

           --- An Ab Initio, DFT and Semiempirical electronic structure package ---

                  #######################################################
                  #                        -***-                        #
                  #          Department of theory and spectroscopy      #
                  #               Directorship: Frank Neese             #
                  #        Max Planck Institute fuer Kohlenforschung    #
                  #                Kaiser Wilhelm Platz 1               #
                  #                 D-45470 Muelheim/Ruhr               #
                  #                      Germany                        #
                  #                                                     #
                  #                  All rights reserved                #
                  #                        -***-                        #
                  #######################################################


                         Program Version 4.2.0 -  RELEASE  -


 With contributions from (in alphabetic order):
   Daniel Aravena         : Magnetic Suceptibility
   Michael Atanasov       : Ab Initio Ligand Field Theory (pilot matlab implementation)
   Alexander A. Auer      : GIAO ZORA, VPT2
   Ute Becker             : Parallelization
   Giovanni Bistoni       : ED, misc. LED, open-shell LED, HFLED
   Martin Brehm           : Molecular dynamics
   Dmytro Bykov           : SCF Hessian
   Vijay G. Chilkuri      : MRCI spin determinant printing, contributions to CSF-ICE
   Dipayan Datta          : RHF DLPNO-CCSD density
   Achintya Kumar Dutta   : EOM-CC, STEOM-CC
   Dmitry Ganyushin       : Spin-Orbit,Spin-Spin,Magnetic field MRCI
   Miquel Garcia          : C-PCM Hessian, Gaussian charge scheme
   Yang Guo               : DLPNO-NEVPT2, CIM, IAO-localization
   Andreas Hansen         : Spin unrestricted coupled pair/coupled cluster methods
   Benjamin Helmich-Paris : CASSCF linear response (MC-RPA)
   Lee Huntington         : MR-EOM, pCC
   Robert Izsak           : Overlap fitted RIJCOSX, COSX-SCS-MP3, EOM
   Christian Kollmar      : KDIIS, OOCD, Brueckner-CCSD(T), CCSD density
   Simone Kossmann        : Meta GGA functionals, TD-DFT gradient, OOMP2, MP2 Hessian
   Martin Krupicka        : AUTO-CI
   Lucas Lang             : DCDCAS
   Dagmar Lenk            : GEPOL surface, SMD
   Dimitrios Liakos       : Extrapolation schemes; Compound Job, initial MDCI parallelization
   Dimitrios Manganas     : Further ROCIS development; embedding schemes
   Dimitrios Pantazis     : SARC Basis sets
   Taras Petrenko         : DFT Hessian,TD-DFT gradient, ASA, ECA, R-Raman, ABS, FL, XAS/XES, NRVS
   Peter Pinski           : DLPNO-MP2, DLPNO-MP2 Gradient
   Christoph Reimann      : Effective Core Potentials
   Marius Retegan         : Local ZFS, SOC
   Christoph Riplinger    : Optimizer, TS searches, QM/MM, DLPNO-CCSD(T), (RO)-DLPNO pert. Triples
   Tobias Risthaus        : Range-separated hybrids, TD-DFT gradient, RPA, STAB
   Michael Roemelt        : Original ROCIS implementation
   Masaaki Saitow         : Open-shell DLPNO-CCSD energy and density
   Barbara Sandhoefer     : DKH picture change effects
   Avijit Sen             : IP-ROCIS
   Kantharuban Sivalingam : CASSCF convergence, NEVPT2, FIC-MRCI
   Bernardo de Souza      : ESD, SOC TD-DFT
   Georgi Stoychev        : AutoAux, RI-MP2 NMR
   Willem Van den Heuvel  : Paramagnetic NMR
   Boris Wezisla          : Elementary symmetry handling
   Frank Wennmohs         : Technical directorship


 We gratefully acknowledge several colleagues who have allowed us to
 interface, adapt or use parts of their codes:
   Stefan Grimme, W. Hujo, H. Kruse,             : VdW corrections, initial TS optimization,
                  C. Bannwarth                     DFT functionals, gCP, sTDA/sTD-DF
   Ed Valeev, F. Pavosevic, A. Kumar             : LibInt (2-el integral package), F12 methods
   Garnet Chan, S. Sharma, J. Yang, R. Olivares  : DMRG
   Ulf Ekstrom                                   : XCFun DFT Library
   Mihaly Kallay                                 : mrcc  (arbitrary order and MRCC methods)
   Andreas Klamt, Michael Diedenhofen            : otool_cosmo (COSMO solvation model)
   Jiri Pittner, Ondrej Demel                    : Mk-CCSD
   Frank Weinhold                                : gennbo (NPA and NBO analysis)
   Christopher J. Cramer and Donald G. Truhlar   : smd solvation model
   Lars Goerigk                                  : TD-DFT with DH, B97 family of functionals
   V. Asgeirsson, H. Jonsson                     : NEB implementation
   FAccTs GmbH                                   : IRC, NEB, NEB-TS, Multilevel, MM, QM/MM, CI optimization
   S Lehtola, MJT Oliveira, MAL Marques          : LibXC Library


 Your calculation uses the libint2 library for the computation of 2-el integrals
 For citations please refer to: http://libint.valeyev.net

 Your ORCA version has been built with support for libXC version: 4.2.3
 For citations please refer to: https://tddft.org/programs/libxc/

 This ORCA versions uses:
   CBLAS   interface :  Fast vector & matrix operations
   LAPACKE interface :  Fast linear algebra routines
   SCALAPACK package :  Parallel linear algebra routines


----- Orbital basis set information -----
Your calculation utilizes the basis: def2-TZVP
   F. Weigend and R. Ahlrichs, Phys. Chem. Chem. Phys. 7, 3297 (2005).

================================================================================
                                        WARNINGS
                       Please study these warnings very carefully!
================================================================================


WARNING: The frozen-core approximation for MP2-gradient calculations is turned on by default.

INFO   : the flag for use of LIBINT has been found!

================================================================================
                                       INPUT FILE
================================================================================
NAME = orcacalc.inp
|  1> ! engrad MP2 def2-TZVP TightSCF FrozenCore 
|  2> %pal nprocs 24 end
|  3> 
|  4> %maxcore 8000
|  5> 
|  6> %scf    ConvForced true end 
|  7> *xyz 0 1 
|  8> O   0.11574908099984253 -4.020886466707639 -0.8312133344727797
|  9> H   -0.4932686905887901 -3.322275024278798 -1.0489322356697623
| 10> H   1.0121798082207725 -3.678131831388587 -0.5736327960935279
| 11> O   -1.8998075080824437 -0.6608477085156723 -1.2498878311584527
| 12> H   -2.2551348816947376 -0.40662319974263583 -2.1320750071365224
| 13> H   -2.2287581720807954 0.0409007931685699 -0.6181899863829093
| 14> O   -2.265574705407698 1.6310886578093247 0.3895447313302952
| 15> H   -1.409790285070239 1.911103971674959 0.35119615073814936
| 16> H   -2.869776653715304 2.3599384656168345 0.7200384904527799
| 17> O   2.8204516673679287 0.8005570826712131 1.5696951411853663
| 18> H   2.1338922708396093 0.23756449626925147 1.1561782002730348
| 19> H   2.7546068834332207 0.6731204630583366 2.5507938663767957
| 20> O   0.785745149410634 -0.3516698398274208 -0.3784906922936391
| 21> H   -0.12631698604801728 -0.6599843949718338 -0.7795952997496547
| 22> H   1.410372590631806 -0.7182071149913153 -1.0345726541472724
| 23> O   0.4679728334696966 2.4824768434861264 0.537005627103599
| 24> H   0.7791654133794514 3.011154390380542 1.280650498970968
| 25> H   1.1268631032362326 1.8251139927523106 0.30663731494580915
| 26> *
| 27> 
| 28>                          ****END OF INPUT****
================================================================================

                     *******************************
                     * Energy+Gradient Calculation *
                     *******************************

---------------------------------
CARTESIAN COORDINATES (ANGSTROEM)
---------------------------------
  O      0.115749   -4.020886   -0.831213
  H     -0.493269   -3.322275   -1.048932
  H      1.012180   -3.678132   -0.573633
  O     -1.899808   -0.660848   -1.249888
  H     -2.255135   -0.406623   -2.132075
  H     -2.228758    0.040901   -0.618190
  O     -2.265575    1.631089    0.389545
  H     -1.409790    1.911104    0.351196
  H     -2.869777    2.359938    0.720038
  O      2.820452    0.800557    1.569695
  H      2.133892    0.237564    1.156178
  H      2.754607    0.673120    2.550794
  O      0.785745   -0.351670   -0.378491
  H     -0.126317   -0.659984   -0.779595
  H      1.410373   -0.718207   -1.034573
  O      0.467973    2.482477    0.537006
  H      0.779165    3.011154    1.280650
  H      1.126863    1.825114    0.306637

----------------------------
CARTESIAN COORDINATES (A.U.)
----------------------------
  NO LB      ZA    FRAG     MASS         X           Y           Z
   0 O     8.0000    0    15.999    0.218734   -7.598374   -1.570766
   1 H     1.0000    0     1.008   -0.932143   -6.278190   -1.982195
   2 H     1.0000    0     1.008    1.912743   -6.950662   -1.084009
   3 O     8.0000    0    15.999   -3.590116   -1.248821   -2.361946
   4 H     1.0000    0     1.008   -4.261587   -0.768406   -4.029038
   5 H     1.0000    0     1.008   -4.211743    0.077291   -1.168210
   6 O     8.0000    0    15.999   -4.281316    3.082311    0.736133
   7 H     1.0000    0     1.008   -2.664118    3.611463    0.663665
   8 H     1.0000    0     1.008   -5.423092    4.459637    1.360676
   9 O     8.0000    0    15.999    5.329881    1.512834    2.966294
  10 H     1.0000    0     1.008    4.032472    0.448932    2.184860
  11 H     1.0000    0     1.008    5.205453    1.272013    4.820302
  12 O     8.0000    0    15.999    1.484843   -0.664560   -0.715244
  13 H     1.0000    0     1.008   -0.238705   -1.247190   -1.473222
  14 H     1.0000    0     1.008    2.665218   -1.357215   -1.955059
  15 O     8.0000    0    15.999    0.884340    4.691201    1.014794
  16 H     1.0000    0     1.008    1.472409    5.690257    2.420079
  17 H     1.0000    0     1.008    2.129463    3.448966    0.579461

--------------------------------
INTERNAL COORDINATES (ANGSTROEM)
--------------------------------
 O      0   0   0     0.000000000000     0.00000000     0.00000000
 H      1   0   0     0.952030521329     0.00000000     0.00000000
 H      1   2   0     0.993688342736   112.53561938     0.00000000
 O      2   1   3     3.016940495529   163.90676218   336.43040383
 H      4   2   1     0.984450027558   117.11476942   139.42678186
 H      4   2   1     0.999850821900   136.92401714   309.65502815
 O      6   4   2     1.882971631029   159.59952052    98.16872761
 H      7   6   4     0.901247004836   102.77063964   345.02202006
 H      7   6   4     1.002750298678   143.32182904   142.37469485
 O      8   7   6     4.540154309995   142.87500664   295.93134323
 H     10   8   7     0.979449190988    51.25719314    45.95999765
 H     10   8   7     0.991529291631   103.59888005   304.53407085
 O     11  10   8     2.126007143371   155.30843835    62.95021100
 H     13  11  10     1.042976562524   156.07334140   227.35579058
 H     13  11  10     0.977216739051   100.56025904    73.66307754
 O      8   7   6     1.971544178936   172.06325226   244.66117765
 H     16   8   7     0.964027212186   122.62127526   320.57380539
 H     16   8   7     0.958817951628   115.66864213    99.58312811

---------------------------
INTERNAL COORDINATES (A.U.)
---------------------------
 O      0   0   0     0.000000000000     0.00000000     0.00000000
 H      1   0   0     1.799076956446     0.00000000     0.00000000
 H      1   2   0     1.877798830242   112.53561938     0.00000000
 O      2   1   3     5.701191298887   163.90676218   336.43040383
 H      4   2   1     1.860340944616   117.11476942   139.42678186
 H      4   2   1     1.889444228168   136.92401714   309.65502815
 O      6   4   2     3.558300700589   159.59952052    98.16872761
 H      7   6   4     1.703110018156   102.77063964   345.02202006
 H      7   6   4     1.894923445209   143.32182904   142.37469485
 O      8   7   6     8.579648251632   142.87500664   295.93134323
 H     10   8   7     1.850890733057    51.25719314    45.95999765
 H     10   8   7     1.873718814943   103.59888005   304.53407085
 O     11  10   8     4.017571259731   155.30843835    62.95021100
 H     13  11  10     1.970940067268   156.07334140   227.35579058
 H     13  11  10     1.846672010289   100.56025904    73.66307754
 O      8   7   6     3.725678559116   172.06325226   244.66117765
 H     16   8   7     1.821747416680   122.62127526   320.57380539
 H     16   8   7     1.811903340864   115.66864213    99.58312811

---------------------
BASIS SET INFORMATION
---------------------
There are 2 groups of distinct atoms

 Group   1 Type O   : 11s6p2d1f contracted to 5s3p2d1f pattern {62111/411/11/1}
 Group   2 Type H   : 5s1p contracted to 3s1p pattern {311/1}

Atom   0O    basis set group =>   1
Atom   1H    basis set group =>   2
Atom   2H    basis set group =>   2
Atom   3O    basis set group =>   1
Atom   4H    basis set group =>   2
Atom   5H    basis set group =>   2
Atom   6O    basis set group =>   1
Atom   7H    basis set group =>   2
Atom   8H    basis set group =>   2
Atom   9O    basis set group =>   1
Atom  10H    basis set group =>   2
Atom  11H    basis set group =>   2
Atom  12O    basis set group =>   1
Atom  13H    basis set group =>   2
Atom  14H    basis set group =>   2
Atom  15O    basis set group =>   1
Atom  16H    basis set group =>   2
Atom  17H    basis set group =>   2

Checking for AutoStart:
The File: orcacalc.gbw exists
Trying to determine its content:
     ... Fine, the file contains calculation information
     ... Fine, the calculation information was read
     ... Fine, the file contains a basis set
     ... Fine, the basis set was read
     ... Fine, the file contains a geometry
     ... Fine, the geometry was read
     ... Fine, the file contains a set of orbitals
     ... Fine, the orbitals can be read
     => possible old guess file was deleted
     => GBW file was renamed to GES file
     => GES file is set as startup file
     => Guess is set to MORead
     ... now leaving AutoStart



           ************************************************************
           *        Program running with 24 parallel MPI-processes    *
           *              working on a common directory               *
           ************************************************************
------------------------------------------------------------------------------
                           ORCA GTO INTEGRAL CALCULATION
------------------------------------------------------------------------------

                         BASIS SET STATISTICS AND STARTUP INFO

 # of primitive gaussian shells          ...  192
 # of primitive gaussian functions       ...  372
 # of contracted shells                  ...  114
 # of contracted basis functions         ...  258
 Highest angular momentum                ...    3
 Maximum contraction depth               ...    6
 Integral package used                   ... LIBINT
 Integral threshhold            Thresh   ...  2.500e-11
 Primitive cut-off              TCut     ...  2.500e-12


------------------------------ INTEGRAL EVALUATION ----------------------------


 * One electron integrals 
 Pre-screening matrix                    ... done
 Shell pair data                         ... done (   0.001 sec)



           ************************************************************
           *        Program running with 24 parallel MPI-processes    *
           *              working on a common directory               *
           ************************************************************
-------------------------------------------------------------------------------
                                 ORCA SCF
-------------------------------------------------------------------------------

------------
SCF SETTINGS
------------
Hamiltonian:
 Ab initio Hamiltonian  Method          .... Hartree-Fock(GTOs)


General Settings:
 Integral files         IntName         .... orcacalc
 Hartree-Fock type      HFTyp           .... RHF
 Total Charge           Charge          ....    0
 Multiplicity           Mult            ....    1
 Number of Electrons    NEL             ....   60
 Basis Dimension        Dim             ....  258
 Nuclear Repulsion      ENuc            ....    261.2033165714 Eh

Convergence Acceleration:
 DIIS                   CNVDIIS         .... on
   Start iteration      DIISMaxIt       ....    12
   Startup error        DIISStart       ....  0.200000
   # of expansion vecs  DIISMaxEq       ....     5
   Bias factor          DIISBfac        ....   1.050
   Max. coefficient     DIISMaxC        ....  10.000
 Newton-Raphson         CNVNR           .... off
 SOSCF                  CNVSOSCF        .... on
   Start iteration      SOSCFMaxIt      ....   150
   Startup grad/error   SOSCFStart      ....  0.003300
 Level Shifting         CNVShift        .... on
   Level shift para.    LevelShift      ....    0.2500
   Turn off err/grad.   ShiftErr        ....    0.0010
 Zerner damping         CNVZerner       .... off
 Static damping         CNVDamp         .... on
   Fraction old density DampFac         ....    0.7000
   Max. Damping (<1)    DampMax         ....    0.9800
   Min. Damping (>=0)   DampMin         ....    0.0000
   Turn off err/grad.   DampErr         ....    0.1000
 Fernandez-Rico         CNVRico         .... off

SCF Procedure:
 Maximum # iterations   MaxIter         ....   125
 SCF integral mode      SCFMode         .... Direct
   Integral package                     .... LIBINT
 Reset frequency        DirectResetFreq ....    20
 Integral Threshold     Thresh          ....  2.500e-11 Eh
 Primitive CutOff       TCut            ....  2.500e-12 Eh

Convergence Tolerance:
 Convergence Check Mode ConvCheckMode   .... Total+1el-Energy
 Convergence forced     ConvForced      .... 1
 Energy Change          TolE            ....  1.000e-08 Eh
 1-El. energy change                    ....  1.000e-05 Eh
 Orbital Gradient       TolG            ....  1.000e-05
 Orbital Rotation angle TolX            ....  1.000e-05
 DIIS Error             TolErr          ....  5.000e-07


Diagonalization of the overlap matrix:
Smallest eigenvalue                        ... 5.134e-03
Time for diagonalization                   ...    0.010 sec
Threshold for overlap eigenvalues          ... 1.000e-08
Number of eigenvalues below threshold      ... 0
Time for construction of square roots      ...    0.035 sec
Total time needed                          ...    0.046 sec

---------------------
INITIAL GUESS: MOREAD
---------------------
Guess MOs are being read from file: orcacalc.ges
Input geometry compatible with but different from current geometry
Input basis set matches current basis set (good)
MOs were renormalized
MOs were reorthogonalized (Cholesky)
                      ------------------
                      INITIAL GUESS DONE (   0.0 sec)
                      ------------------
--------------
SCF ITERATIONS
--------------
ITER       Energy         Delta-E        Max-DP      RMS-DP      [F,P]     Damp
               ***  Starting incremental Fock matrix formation  ***
  0   -456.3651310753   0.000000000000 0.00154061  0.00004100  0.0171095 0.7000
                      *** Initiating the SOSCF procedure ***
                      *** Re-Reading the Fockian *** 
                      *** Removing any level shift *** 
ITER      Energy       Delta-E        Grad      Rot      Max-DP    RMS-DP
  1   -456.36557451  -0.0004434357  0.000654  0.000654  0.004466  0.000119
               *** Restarting incremental Fock matrix formation ***
  2   -456.36682462  -0.0012501133  0.001083  0.000969  0.002107  0.000048
  3   -456.36693455  -0.0001099219  0.000433  0.000655  0.001491  0.000033
  4   -456.36695719  -0.0000226390  0.000165  0.000088  0.000228  0.000005
  5   -456.36695885  -0.0000016685  0.000037  0.000071  0.000112  0.000002
  6   -456.36695900  -0.0000001425  0.000013  0.000035  0.000052  0.000001
  7   -456.36695901  -0.0000000158  0.000004  0.000004  0.000008  0.000000
                 **** Energy Check signals convergence ****
              ***Rediagonalizing the Fockian in SOSCF/NRSCF***

               *****************************************************
               *                     SUCCESS                       *
               *           SCF CONVERGED AFTER   8 CYCLES          *
               *****************************************************


----------------
TOTAL SCF ENERGY
----------------

Total Energy       :         -456.36695901 Eh          -12418.37629 eV

Components:
Nuclear Repulsion  :          261.20331657 Eh            7107.70359 eV
Electronic Energy  :         -717.57027559 Eh          -19526.07989 eV
One Electron Energy:        -1150.72549989 Eh          -31312.83277 eV
Two Electron Energy:          433.15522431 Eh           11786.75288 eV

Virial components:
Potential Energy   :         -911.97201391 Eh          -24816.02012 eV
Kinetic Energy     :          455.60505489 Eh           12397.64383 eV
Virial Ratio       :            2.00167229


---------------
SCF CONVERGENCE
---------------

  Last Energy change         ...   -1.7801e-09  Tolerance :   1.0000e-08
  Last MAX-Density change    ...    2.9632e-06  Tolerance :   1.0000e-07
  Last RMS-Density change    ...    6.9104e-08  Tolerance :   5.0000e-09
  Last Orbital Gradient      ...    9.6932e-07  Tolerance :   1.0000e-05
  Last Orbital Rotation      ...    1.2720e-06  Tolerance :   1.0000e-05

             **** THE GBW FILE WAS UPDATED (orcacalc.gbw) ****
             **** DENSITY FILE WAS UPDATED (orcacalc.scfp) ****
             **** ENERGY FILE WAS UPDATED (orcacalc.en.tmp) ****
             **** THE GBW FILE WAS UPDATED (orcacalc.gbw) ****
             **** DENSITY FILE WAS UPDATED (orcacalc.scfp) ****
----------------
ORBITAL ENERGIES
----------------

  NO   OCC          E(Eh)            E(eV) 
   0   2.0000     -20.572946      -559.8183 
   1   2.0000     -20.569821      -559.7333 
   2   2.0000     -20.559216      -559.4447 
   3   2.0000     -20.558075      -559.4137 
   4   2.0000     -20.554420      -559.3142 
   5   2.0000     -20.550321      -559.2027 
   6   2.0000      -1.360586       -37.0234 
   7   2.0000      -1.346070       -36.6284 
   8   2.0000      -1.343615       -36.5616 
   9   2.0000      -1.332876       -36.2694 
  10   2.0000      -1.329267       -36.1712 
  11   2.0000      -1.328320       -36.1454 
  12   2.0000      -0.740322       -20.1452 
  13   2.0000      -0.726535       -19.7700 
  14   2.0000      -0.717527       -19.5249 
  15   2.0000      -0.712607       -19.3910 
  16   2.0000      -0.705094       -19.1866 
  17   2.0000      -0.689209       -18.7543 
  18   2.0000      -0.615561       -16.7503 
  19   2.0000      -0.594834       -16.1863 
  20   2.0000      -0.579298       -15.7635 
  21   2.0000      -0.568832       -15.4787 
  22   2.0000      -0.555853       -15.1255 
  23   2.0000      -0.554809       -15.0971 
  24   2.0000      -0.519174       -14.1274 
  25   2.0000      -0.516261       -14.0482 
  26   2.0000      -0.506562       -13.7843 
  27   2.0000      -0.505122       -13.7451 
  28   2.0000      -0.498192       -13.5565 
  29   2.0000      -0.496197       -13.5022 
  30   0.0000       0.100558         2.7363 
  31   0.0000       0.131310         3.5731 
  32   0.0000       0.134838         3.6691 
  33   0.0000       0.155725         4.2375 
  34   0.0000       0.180650         4.9157 
  35   0.0000       0.186316         5.0699 
  36   0.0000       0.222245         6.0476 
  37   0.0000       0.261739         7.1223 
  38   0.0000       0.282846         7.6966 
  39   0.0000       0.284819         7.7503 
  40   0.0000       0.323015         8.7897 
  41   0.0000       0.331392         9.0176 
  42   0.0000       0.437687        11.9101 
  43   0.0000       0.470611        12.8060 
  44   0.0000       0.498261        13.5584 
  45   0.0000       0.507333        13.8052 
  46   0.0000       0.523321        14.2403 
  47   0.0000       0.536001        14.5853 
  48   0.0000       0.541724        14.7411 
  49   0.0000       0.553727        15.0677 
  50   0.0000       0.566669        15.4198 
  51   0.0000       0.586815        15.9680 
  52   0.0000       0.599042        16.3008 
  53   0.0000       0.601467        16.3667 
  54   0.0000       0.617187        16.7945 
  55   0.0000       0.618465        16.8293 
  56   0.0000       0.626475        17.0472 
  57   0.0000       0.629525        17.1302 
  58   0.0000       0.641008        17.4427 
  59   0.0000       0.684063        18.6143 
  60   0.0000       0.709260        19.2999 
  61   0.0000       0.715576        19.4718 
  62   0.0000       0.734741        19.9933 
  63   0.0000       0.737049        20.0561 
  64   0.0000       0.757938        20.6245 
  65   0.0000       0.763709        20.7816 
  66   0.0000       0.777208        21.1489 
  67   0.0000       0.790414        21.5083 
  68   0.0000       0.817831        22.2543 
  69   0.0000       0.833681        22.6856 
  70   0.0000       0.860218        23.4077 
  71   0.0000       0.888048        24.1650 
  72   0.0000       0.907786        24.7021 
  73   0.0000       0.924609        25.1599 
  74   0.0000       0.957649        26.0590 
  75   0.0000       0.981992        26.7214 
  76   0.0000       0.989956        26.9381 
  77   0.0000       1.019617        27.7452 
  78   0.0000       1.362647        37.0795 
  79   0.0000       1.413021        38.4503 
  80   0.0000       1.419153        38.6171 
  81   0.0000       1.429943        38.9107 
  82   0.0000       1.440027        39.1851 
  83   0.0000       1.447986        39.4017 
  84   0.0000       1.455828        39.6151 
  85   0.0000       1.475469        40.1495 
  86   0.0000       1.483430        40.3662 
  87   0.0000       1.497138        40.7392 
  88   0.0000       1.515844        41.2482 
  89   0.0000       1.552369        42.2421 
  90   0.0000       1.559155        42.4268 
  91   0.0000       1.560385        42.4602 
  92   0.0000       1.570881        42.7458 
  93   0.0000       1.583449        43.0878 
  94   0.0000       1.600637        43.5556 
  95   0.0000       1.630413        44.3658 
  96   0.0000       1.788050        48.6553 
  97   0.0000       1.804300        49.0975 
  98   0.0000       1.829788        49.7911 
  99   0.0000       1.842504        50.1371 
 100   0.0000       1.858350        50.5683 
 101   0.0000       1.889329        51.4113 
 102   0.0000       1.910682        51.9923 
 103   0.0000       1.917149        52.1683 
 104   0.0000       1.931439        52.5571 
 105   0.0000       1.987865        54.0926 
 106   0.0000       1.994811        54.2816 
 107   0.0000       2.014900        54.8282 
 108   0.0000       2.021457        55.0066 
 109   0.0000       2.051771        55.8315 
 110   0.0000       2.081286        56.6347 
 111   0.0000       2.091224        56.9051 
 112   0.0000       2.101652        57.1889 
 113   0.0000       2.147885        58.4469 
 114   0.0000       2.269513        61.7566 
 115   0.0000       2.277103        61.9631 
 116   0.0000       2.287155        62.2366 
 117   0.0000       2.297868        62.5282 
 118   0.0000       2.300176        62.5910 
 119   0.0000       2.307726        62.7964 
 120   0.0000       2.321888        63.1818 
 121   0.0000       2.325477        63.2795 
 122   0.0000       2.354261        64.0627 
 123   0.0000       2.374778        64.6210 
 124   0.0000       2.384786        64.8933 
 125   0.0000       2.396796        65.2201 
 126   0.0000       2.412514        65.6478 
 127   0.0000       2.436727        66.3067 
 128   0.0000       2.450139        66.6717 
 129   0.0000       2.468051        67.1591 
 130   0.0000       2.486463        67.6601 
 131   0.0000       2.499859        68.0246 
 132   0.0000       2.582388        70.2704 
 133   0.0000       2.583785        70.3084 
 134   0.0000       2.595503        70.6272 
 135   0.0000       2.617821        71.2345 
 136   0.0000       2.637016        71.7569 
 137   0.0000       2.653890        72.2160 
 138   0.0000       2.705912        73.6316 
 139   0.0000       2.729648        74.2775 
 140   0.0000       2.738029        74.5055 
 141   0.0000       2.778579        75.6090 
 142   0.0000       2.784376        75.7667 
 143   0.0000       2.828415        76.9651 
 144   0.0000       2.904380        79.0322 
 145   0.0000       2.926603        79.6369 
 146   0.0000       2.936717        79.9121 
 147   0.0000       2.941401        80.0396 
 148   0.0000       2.956703        80.4560 
 149   0.0000       2.971463        80.8576 
 150   0.0000       2.979871        81.0864 
 151   0.0000       3.004214        81.7488 
 152   0.0000       3.025355        82.3241 
 153   0.0000       3.030204        82.4560 
 154   0.0000       3.030873        82.4743 
 155   0.0000       3.034369        82.5694 
 156   0.0000       3.069366        83.5217 
 157   0.0000       3.093833        84.1875 
 158   0.0000       3.106700        84.5376 
 159   0.0000       3.124770        85.0293 
 160   0.0000       3.141027        85.4717 
 161   0.0000       3.171331        86.2963 
 162   0.0000       3.222128        87.6786 
 163   0.0000       3.252133        88.4950 
 164   0.0000       3.296273        89.6962 
 165   0.0000       3.336151        90.7813 
 166   0.0000       3.365387        91.5768 
 167   0.0000       3.397025        92.4377 
 168   0.0000       3.958079       107.7048 
 169   0.0000       3.971753       108.0769 
 170   0.0000       3.990587       108.5894 
 171   0.0000       3.999827       108.8408 
 172   0.0000       4.022064       109.4459 
 173   0.0000       4.089689       111.2861 
 174   0.0000       4.242507       115.4445 
 175   0.0000       4.286265       116.6352 
 176   0.0000       4.313342       117.3720 
 177   0.0000       4.362008       118.6963 
 178   0.0000       4.388606       119.4200 
 179   0.0000       4.419362       120.2569 
 180   0.0000       5.542563       150.8208 
 181   0.0000       5.544878       150.8838 
 182   0.0000       5.545886       150.9112 
 183   0.0000       5.557435       151.2255 
 184   0.0000       5.565983       151.4581 
 185   0.0000       5.567829       151.5083 
 186   0.0000       5.629515       153.1869 
 187   0.0000       5.630918       153.2251 
 188   0.0000       5.633016       153.2822 
 189   0.0000       5.638152       153.4219 
 190   0.0000       5.639107       153.4479 
 191   0.0000       5.660229       154.0227 
 192   0.0000       5.783627       157.3805 
 193   0.0000       5.787787       157.4937 
 194   0.0000       5.814822       158.2293 
 195   0.0000       5.820025       158.3709 
 196   0.0000       5.823604       158.4683 
 197   0.0000       5.834991       158.7782 
 198   0.0000       5.837849       158.8559 
 199   0.0000       5.844583       159.0392 
 200   0.0000       5.853077       159.2703 
 201   0.0000       5.854279       159.3030 
 202   0.0000       5.865718       159.6143 
 203   0.0000       5.866613       159.6387 
 204   0.0000       5.884766       160.1326 
 205   0.0000       5.912839       160.8965 
 206   0.0000       5.936762       161.5475 
 207   0.0000       5.985690       162.8789 
 208   0.0000       6.000073       163.2703 
 209   0.0000       6.013634       163.6393 
 210   0.0000       6.338582       172.4816 
 211   0.0000       6.390784       173.9021 
 212   0.0000       6.418590       174.6587 
 213   0.0000       6.423891       174.8029 
 214   0.0000       6.430969       174.9956 
 215   0.0000       6.501745       176.9215 
 216   0.0000       6.620862       180.1628 
 217   0.0000       6.647052       180.8755 
 218   0.0000       6.676507       181.6770 
 219   0.0000       6.747182       183.6001 
 220   0.0000       6.752884       183.7553 
 221   0.0000       6.794223       184.8802 
 222   0.0000       6.813167       185.3957 
 223   0.0000       6.819369       185.5645 
 224   0.0000       6.822450       185.6483 
 225   0.0000       6.845002       186.2620 
 226   0.0000       6.863954       186.7777 
 227   0.0000       6.873450       187.0361 
 228   0.0000       6.881653       187.2593 
 229   0.0000       6.895905       187.6471 
 230   0.0000       6.902319       187.8217 
 231   0.0000       6.908842       187.9991 
 232   0.0000       6.911013       188.0582 
 233   0.0000       6.912716       188.1046 
 234   0.0000       6.927837       188.5160 
 235   0.0000       6.932637       188.6466 
 236   0.0000       6.974922       189.7973 
 237   0.0000       7.000818       190.5019 
 238   0.0000       7.017905       190.9669 
 239   0.0000       7.059179       192.0900 
 240   0.0000       7.288402       198.3275 
 241   0.0000       7.367851       200.4894 
 242   0.0000       7.407760       201.5754 
 243   0.0000       7.433178       202.2671 
 244   0.0000       7.433475       202.2751 
 245   0.0000       7.474464       203.3905 
 246   0.0000       7.490778       203.8344 
 247   0.0000       7.496764       203.9973 
 248   0.0000       7.511498       204.3983 
 249   0.0000       7.524672       204.7567 
 250   0.0000       7.554853       205.5780 
 251   0.0000       7.647225       208.0916 
 252   0.0000      44.888820      1221.4869 
 253   0.0000      44.895056      1221.6566 
 254   0.0000      44.934440      1222.7283 
 255   0.0000      44.962664      1223.4963 
 256   0.0000      44.973976      1223.8041 
 257   0.0000      45.010486      1224.7976 

                    ********************************
                    * MULLIKEN POPULATION ANALYSIS *
                    ********************************

-----------------------
MULLIKEN ATOMIC CHARGES
-----------------------
   0 O :   -0.716477
   1 H :    0.363157
   2 H :    0.352790
   3 O :   -0.769811
   4 H :    0.359956
   5 H :    0.425924
   6 O :   -0.754629
   7 H :    0.394517
   8 H :    0.364836
   9 O :   -0.731411
  10 H :    0.374296
  11 H :    0.351957
  12 O :   -0.767290
  13 H :    0.406532
  14 H :    0.342847
  15 O :   -0.742488
  16 H :    0.355253
  17 H :    0.390040
Sum of atomic charges:   -0.0000000

--------------------------------
MULLIKEN REDUCED ORBITAL CHARGES
--------------------------------
  0 O s       :     3.800738  s :     3.800738
      pz      :     1.906364  p :     4.890700
      px      :     1.346280
      py      :     1.638056
      dz2     :     0.003835  d :     0.023372
      dxz     :     0.001186
      dyz     :     0.003031
      dx2y2   :     0.003359
      dxy     :     0.011960
      f0      :     0.000300  f :     0.001667
      f+1     :     0.000316
      f-1     :     0.000172
      f+2     :     0.000135
      f-2     :     0.000219
      f+3     :     0.000250
      f-3     :     0.000276
  1 H s       :     0.589926  s :     0.589926
      pz      :     0.015974  p :     0.046917
      px      :     0.015130
      py      :     0.015813
  2 H s       :     0.604634  s :     0.604634
      pz      :     0.014482  p :     0.042576
      px      :     0.017750
      py      :     0.010345
  3 O s       :     3.807981  s :     3.807981
      pz      :     1.362136  p :     4.938043
      px      :     1.831155
      py      :     1.744752
      dz2     :     0.002957  d :     0.022401
      dxz     :     0.004661
      dyz     :     0.008495
      dx2y2   :     0.002688
      dxy     :     0.003600
      f0      :     0.000224  f :     0.001386
      f+1     :     0.000334
      f-1     :     0.000234
      f+2     :     0.000144
      f-2     :     0.000269
      f+3     :     0.000137
      f-3     :     0.000044
  4 H s       :     0.596974  s :     0.596974
      pz      :     0.017518  p :     0.043069
      px      :     0.013810
      py      :     0.011742
  5 H s       :     0.526857  s :     0.526857
      pz      :     0.015432  p :     0.047220
      px      :     0.011810
      py      :     0.019977
  6 O s       :     3.783726  s :     3.783726
      pz      :     1.910875  p :     4.949178
      px      :     1.383579
      py      :     1.654725
      dz2     :     0.003317  d :     0.020023
      dxz     :     0.000741
      dyz     :     0.002783
      dx2y2   :     0.004197
      dxy     :     0.008985
      f0      :     0.000262  f :     0.001701
      f+1     :     0.000442
      f-1     :     0.000138
      f+2     :     0.000059
      f-2     :     0.000218
      f+3     :     0.000280
      f-3     :     0.000302
  7 H s       :     0.549046  s :     0.549046
      pz      :     0.015600  p :     0.056437
      px      :     0.027936
      py      :     0.012901
  8 H s       :     0.593548  s :     0.593548
      pz      :     0.014246  p :     0.041616
      px      :     0.012604
      py      :     0.014766
  9 O s       :     3.812863  s :     3.812863
      pz      :     1.364155  p :     4.892768
      px      :     1.737952
      py      :     1.790661
      dz2     :     0.009829  d :     0.024296
      dxz     :     0.002899
      dyz     :     0.002723
      dx2y2   :     0.001757
      dxy     :     0.007087
      f0      :     0.000686  f :     0.001484
      f+1     :     0.000025
      f-1     :     0.000075
      f+2     :     0.000027
      f-2     :     0.000300
      f+3     :     0.000116
      f-3     :     0.000256
 10 H s       :     0.579154  s :     0.579154
      pz      :     0.011881  p :     0.046550
      px      :     0.018095
      py      :     0.016573
 11 H s       :     0.605255  s :     0.605255
      pz      :     0.018988  p :     0.042788
      px      :     0.011467
      py      :     0.012333
 12 O s       :     3.821232  s :     3.821232
      pz      :     1.678072  p :     4.921429
      px      :     1.384971
      py      :     1.858386
      dz2     :     0.002328  d :     0.023332
      dxz     :     0.010500
      dyz     :     0.004484
      dx2y2   :     0.001540
      dxy     :     0.004479
      f0      :     0.000122  f :     0.001297
      f+1     :     0.000107
      f-1     :     0.000133
      f+2     :     0.000204
      f-2     :     0.000369
      f+3     :     0.000131
      f-3     :     0.000232
 13 H s       :     0.545987  s :     0.545987
      pz      :     0.011250  p :     0.047482
      px      :     0.025149
      py      :     0.011083
 14 H s       :     0.612928  s :     0.612928
      pz      :     0.015589  p :     0.044225
      px      :     0.014143
      py      :     0.014493
 15 O s       :     3.788463  s :     3.788463
      pz      :     1.634680  p :     4.930504
      px      :     1.694299
      py      :     1.601525
      dz2     :     0.004538  d :     0.021876
      dxz     :     0.004323
      dyz     :     0.003529
      dx2y2   :     0.000644
      dxy     :     0.008843
      f0      :     0.000119  f :     0.001645
      f+1     :     0.000151
      f-1     :     0.000499
      f+2     :     0.000124
      f-2     :     0.000379
      f+3     :     0.000186
      f-3     :     0.000188
 16 H s       :     0.599715  s :     0.599715
      pz      :     0.018040  p :     0.045032
      px      :     0.011871
      py      :     0.015121
 17 H s       :     0.564288  s :     0.564288
      pz      :     0.012239  p :     0.045672
      px      :     0.015820
      py      :     0.017613


                     *******************************
                     * LOEWDIN POPULATION ANALYSIS *
                     *******************************

----------------------
LOEWDIN ATOMIC CHARGES
----------------------
   0 O :   -0.332681
   1 H :    0.150981
   2 H :    0.178015
   3 O :   -0.344571
   4 H :    0.175192
   5 H :    0.186267
   6 O :   -0.292527
   7 H :    0.103862
   8 H :    0.192978
   9 O :   -0.349977
  10 H :    0.162583
  11 H :    0.177116
  12 O :   -0.381176
  13 H :    0.204183
  14 H :    0.158944
  15 O :   -0.304593
  16 H :    0.161002
  17 H :    0.154403

-------------------------------
LOEWDIN REDUCED ORBITAL CHARGES
-------------------------------
  0 O s       :     3.454821  s :     3.454821
      pz      :     1.855543  p :     4.844987
      px      :     1.348495
      py      :     1.640949
      dz2     :     0.004378  d :     0.030788
      dxz     :     0.002086
      dyz     :     0.002491
      dx2y2   :     0.004965
      dxy     :     0.016868
      f0      :     0.000320  f :     0.002085
      f+1     :     0.000316
      f-1     :     0.000149
      f+2     :     0.000126
      f-2     :     0.000260
      f+3     :     0.000428
      f-3     :     0.000486
  1 H s       :     0.680023  s :     0.680023
      pz      :     0.049300  p :     0.168996
      px      :     0.051715
      py      :     0.067980
  2 H s       :     0.673070  s :     0.673070
      pz      :     0.042822  p :     0.148915
      px      :     0.069614
      py      :     0.036479
  3 O s       :     3.473010  s :     3.473010
      pz      :     1.351092  p :     4.841497
      px      :     1.780967
      py      :     1.709438
      dz2     :     0.005632  d :     0.028211
      dxz     :     0.006749
      dyz     :     0.010549
      dx2y2   :     0.002590
      dxy     :     0.002692
      f0      :     0.000266  f :     0.001853
      f+1     :     0.000477
      f-1     :     0.000323
      f+2     :     0.000186
      f-2     :     0.000454
      f+3     :     0.000133
      f-3     :     0.000014
  4 H s       :     0.670847  s :     0.670847
      pz      :     0.069122  p :     0.153961
      px      :     0.046121
      py      :     0.038718
  5 H s       :     0.646916  s :     0.646916
      pz      :     0.052218  p :     0.166818
      px      :     0.042591
      py      :     0.072009
  6 O s       :     3.414443  s :     3.414443
      pz      :     1.844726  p :     4.847407
      px      :     1.373199
      py      :     1.629482
      dz2     :     0.003882  d :     0.028461
      dxz     :     0.001290
      dyz     :     0.003255
      dx2y2   :     0.006468
      dxy     :     0.013565
      f0      :     0.000195  f :     0.002217
      f+1     :     0.000560
      f-1     :     0.000077
      f+2     :     0.000034
      f-2     :     0.000317
      f+3     :     0.000532
      f-3     :     0.000501
  7 H s       :     0.689139  s :     0.689139
      pz      :     0.055465  p :     0.206998
      px      :     0.101479
      py      :     0.050055
  8 H s       :     0.662853  s :     0.662853
      pz      :     0.043316  p :     0.144169
      px      :     0.041157
      py      :     0.059696
  9 O s       :     3.475738  s :     3.475738
      pz      :     1.368601  p :     4.841612
      px      :     1.708685
      py      :     1.764325
      dz2     :     0.014764  d :     0.030644
      dxz     :     0.003708
      dyz     :     0.003477
      dx2y2   :     0.000819
      dxy     :     0.007877
      f0      :     0.000988  f :     0.001984
      f+1     :     0.000027
      f-1     :     0.000107
      f+2     :     0.000020
      f-2     :     0.000462
      f+3     :     0.000083
      f-3     :     0.000296
 10 H s       :     0.674140  s :     0.674140
      pz      :     0.036819  p :     0.163277
      px      :     0.067480
      py      :     0.058978
 11 H s       :     0.672914  s :     0.672914
      pz      :     0.078953  p :     0.149970
      px      :     0.034240
      py      :     0.036778
 12 O s       :     3.501862  s :     3.501862
      pz      :     1.674012  p :     4.848825
      px      :     1.359283
      py      :     1.815530
      dz2     :     0.001860  d :     0.028680
      dxz     :     0.013923
      dyz     :     0.004342
      dx2y2   :     0.002833
      dxy     :     0.005722
      f0      :     0.000181  f :     0.001808
      f+1     :     0.000247
      f-1     :     0.000124
      f+2     :     0.000270
      f-2     :     0.000624
      f+3     :     0.000089
      f-3     :     0.000273
 13 H s       :     0.639564  s :     0.639564
      pz      :     0.036885  p :     0.156252
      px      :     0.083738
      py      :     0.035629
 14 H s       :     0.682176  s :     0.682176
      pz      :     0.061756  p :     0.158881
      px      :     0.047841
      py      :     0.049284
 15 O s       :     3.432418  s :     3.432418
      pz      :     1.615396  p :     4.840630
      px      :     1.662172
      py      :     1.563061
      dz2     :     0.005853  d :     0.029398
      dxz     :     0.004940
      dyz     :     0.006448
      dx2y2   :     0.000671
      dxy     :     0.011486
      f0      :     0.000125  f :     0.002147
      f+1     :     0.000346
      f-1     :     0.000545
      f+2     :     0.000100
      f-2     :     0.000438
      f+3     :     0.000282
      f-3     :     0.000311
 16 H s       :     0.677078  s :     0.677078
      pz      :     0.069476  p :     0.161920
      px      :     0.042039
      py      :     0.050405
 17 H s       :     0.676264  s :     0.676264
      pz      :     0.038497  p :     0.169333
      px      :     0.066196
      py      :     0.064641


                      *****************************
                      * MAYER POPULATION ANALYSIS *
                      *****************************

  NA   - Mulliken gross atomic population
  ZA   - Total nuclear charge
  QA   - Mulliken gross atomic charge
  VA   - Mayer's total valence
  BVA  - Mayer's bonded valence
  FA   - Mayer's free valence

  ATOM       NA         ZA         QA         VA         BVA        FA
  0 O      8.7165     8.0000    -0.7165     1.7610     1.7610    -0.0000
  1 H      0.6368     1.0000     0.3632     0.8892     0.8892    -0.0000
  2 H      0.6472     1.0000     0.3528     0.8913     0.8913     0.0000
  3 O      8.7698     8.0000    -0.7698     1.7148     1.7148     0.0000
  4 H      0.6400     1.0000     0.3600     0.8851     0.8851     0.0000
  5 H      0.5741     1.0000     0.4259     0.8441     0.8441     0.0000
  6 O      8.7546     8.0000    -0.7546     1.7283     1.7283    -0.0000
  7 H      0.6055     1.0000     0.3945     0.8771     0.8771    -0.0000
  8 H      0.6352     1.0000     0.3648     0.8819     0.8819    -0.0000
  9 O      8.7314     8.0000    -0.7314     1.7487     1.7487    -0.0000
 10 H      0.6257     1.0000     0.3743     0.8823     0.8823    -0.0000
 11 H      0.6480     1.0000     0.3520     0.8902     0.8902    -0.0000
 12 O      8.7673     8.0000    -0.7673     1.7009     1.7009     0.0000
 13 H      0.5935     1.0000     0.4065     0.8707     0.8707    -0.0000
 14 H      0.6572     1.0000     0.3428     0.8959     0.8959     0.0000
 15 O      8.7425     8.0000    -0.7425     1.7389     1.7389    -0.0000
 16 H      0.6447     1.0000     0.3553     0.8911     0.8911    -0.0000
 17 H      0.6100     1.0000     0.3900     0.8787     0.8787    -0.0000

  Mayer bond orders larger than 0.100000
B(  0-O ,  1-H ) :   0.8751 B(  0-O ,  2-H ) :   0.8790 B(  3-O ,  4-H ) :   0.8762 
B(  3-O ,  5-H ) :   0.8043 B(  6-O ,  7-H ) :   0.8395 B(  6-O ,  8-H ) :   0.8717 
B(  9-O , 10-H ) :   0.8563 B(  9-O , 11-H ) :   0.8818 B( 12-O , 13-H ) :   0.8044 
B( 12-O , 14-H ) :   0.8883 B( 15-O , 16-H ) :   0.8799 B( 15-O , 17-H ) :   0.8453 


-------
TIMINGS
-------

Total SCF time: 0 days 0 hours 0 min 3 sec 

Total time                  ....       3.918 sec
Sum of individual times     ....       3.219 sec  ( 82.2%)

Fock matrix formation       ....       2.873 sec  ( 73.3%)
Diagonalization             ....       0.045 sec  (  1.2%)
Density matrix formation    ....       0.021 sec  (  0.5%)
Population analysis         ....       0.085 sec  (  2.2%)
Initial guess               ....       0.031 sec  (  0.8%)
Orbital Transformation      ....       0.000 sec  (  0.0%)
Orbital Orthonormalization  ....       0.012 sec  (  0.3%)
DIIS solution               ....       0.005 sec  (  0.1%)
SOSCF solution              ....       0.159 sec  (  4.1%)


           ************************************************************
           *        Program running with 24 parallel MPI-processes    *
           *              working on a common directory               *
           ************************************************************

------------------------------------------------------------------------------
                                ORCA  MP2 
------------------------------------------------------------------------------

Freezing NCore=12 chemical core electrons
MP2 will be done in the AO integral direct mode
The Q1-step will be done using symmetric double matrices
Dimension of the basis                    ...  258
Memory devoted for MP2                    ... 8000 MB   
Memory needed for all in one shot         ...   67 MB
Number of MOs that can be treated together...  120      
MP2 density construction                  ... relaxed
The MP2 gradient is requested => amplitudes will be stored on disk
Total number of MOs              ...   24
Number of MOs treated per batch  ...    1 
Number of batches necessary      ...    1 
OPERATORS   0/  0 PASS   0
-----------------------------------------------
 MP2 CORRELATION ENERGY   :     -1.546906767 Eh
-----------------------------------------------


---------------------
MP2 DENSITY FORMATION
---------------------

Completing the external part of the density      ... done
Storing the unrelaxed density                    ... done

Calculating G(D)                                 ... done
Completing the Lagrangian                        ... done
Solving the Z-vector equations                   ... 

------------------------------------------------------------------------------
                           ORCA CP-SCF CALCULATION
------------------------------------------------------------------------------

Input orbitals are from        ... orcacalc.gbw
Input Perturbation             ... orcacalc.pin.tmp
Wavefunction output            ... orcacalc.pout.tmp
Perturbation mode              ... Real perturbation (singlet)
Solver                         ... POPLE
Max. number of iterations      ... 128
Convergence tolerance          ... 1.000e-08
Integral handling              ... Direct
Number of perturbations        ... 1
Number of operators            ... 1
Orbital ranges used for CP-SCF:
 Operator 0:  Orbitals   0... 29  to  30...257
Variables per vector in CP-SCF ... 6840
Number of vectors sought       ... 1
     CP-SCF ITERATION   0: 
     CP-SCF ITERATION   1:      0.000716958740
     CP-SCF ITERATION   2:      0.000018737067
     CP-SCF ITERATION   3:      0.000000839125
     CP-SCF ITERATION   4:      0.000000083685
     CP-SCF ITERATION   5:      0.000000009125
                                                 ... done
Finalizing the relaxed density                   ... done
Transforming P to the AO basis                   ... done
Storing the relaxed density                      ... done

------------------------------------
ENERGY WEIGHTED DENSITY FINALIZATION
------------------------------------

Gathering the parts of the W-matrix              ...                                                      done
Forming the Z-density                            ... done
Transforming Z to the AO basis                   ... done
Calculating G(Z)                                 ... done
Finalizing the W-matrix                          ...                                                      done
Transforming W to the AO basis and storing       ... done

                *********************************************
                * UNRELAXED MP2 DENSITY POPULATION ANALYSIS *
                *********************************************

------------------------------------------------------------------------------
                           ORCA POPULATION ANALYSIS
------------------------------------------------------------------------------
Input electron density              ... orcacalc.pmp2ur
BaseName (.gbw .S,...)              ... orcacalc

                    ********************************
                    * MULLIKEN POPULATION ANALYSIS *
                    ********************************

-----------------------
MULLIKEN ATOMIC CHARGES
-----------------------
   0 O :   -0.711943
   1 H :    0.361165
   2 H :    0.350214
   3 O :   -0.763219
   4 H :    0.357446
   5 H :    0.422447
   6 O :   -0.750063
   7 H :    0.392484
   8 H :    0.362295
   9 O :   -0.725945
  10 H :    0.371233
  11 H :    0.349390
  12 O :   -0.760400
  13 H :    0.401787
  14 H :    0.340133
  15 O :   -0.737330
  16 H :    0.353015
  17 H :    0.387291
Sum of atomic charges:    0.0000000

--------------------------------
MULLIKEN REDUCED ORBITAL CHARGES
--------------------------------
  0 O s       :     3.796070  s :     3.796070
      pz      :     1.894807  p :     4.861747
      px      :     1.339060
      py      :     1.627880
      dz2     :     0.009265  d :     0.049922
      dxz     :     0.006720
      dyz     :     0.008468
      dx2y2   :     0.008602
      dxy     :     0.016867
      f0      :     0.000652  f :     0.004205
      f+1     :     0.000667
      f-1     :     0.000530
      f+2     :     0.000492
      f-2     :     0.000586
      f+3     :     0.000626
      f-3     :     0.000651
  1 H s       :     0.590371  s :     0.590371
      pz      :     0.016757  p :     0.048463
      px      :     0.015424
      py      :     0.016283
  2 H s       :     0.605639  s :     0.605639
      pz      :     0.015285  p :     0.044147
      px      :     0.017744
      py      :     0.011118
  3 O s       :     3.802983  s :     3.802983
      pz      :     1.354155  p :     4.906502
      px      :     1.818701
      py      :     1.733646
      dz2     :     0.008322  d :     0.049785
      dxz     :     0.010172
      dyz     :     0.013730
      dx2y2   :     0.008393
      dxy     :     0.009168
      f0      :     0.000589  f :     0.003949
      f+1     :     0.000691
      f-1     :     0.000605
      f+2     :     0.000516
      f-2     :     0.000637
      f+3     :     0.000501
      f-3     :     0.000410
  4 H s       :     0.597924  s :     0.597924
      pz      :     0.017525  p :     0.044630
      px      :     0.014562
      py      :     0.012543
  5 H s       :     0.528949  s :     0.528949
      pz      :     0.015710  p :     0.048604
      px      :     0.012488
      py      :     0.020406
  6 O s       :     3.779095  s :     3.779095
      pz      :     1.899043  p :     4.919283
      px      :     1.376138
      py      :     1.644102
      dz2     :     0.008876  d :     0.047402
      dxz     :     0.006369
      dyz     :     0.008415
      dx2y2   :     0.009574
      dxy     :     0.014168
      f0      :     0.000618  f :     0.004284
      f+1     :     0.000800
      f-1     :     0.000499
      f+2     :     0.000428
      f-2     :     0.000585
      f+3     :     0.000666
      f-3     :     0.000689
  7 H s       :     0.549653  s :     0.549653
      pz      :     0.016323  p :     0.057863
      px      :     0.027986
      py      :     0.013554
  8 H s       :     0.594579  s :     0.594579
      pz      :     0.015015  p :     0.043126
      px      :     0.012936
      py      :     0.015175
  9 O s       :     3.808106  s :     3.808106
      pz      :     1.356391  p :     4.862730
      px      :     1.727179
      py      :     1.779160
      dz2     :     0.014877  d :     0.051081
      dxz     :     0.008299
      dyz     :     0.008179
      dx2y2   :     0.007331
      dxy     :     0.012395
      f0      :     0.001039  f :     0.004028
      f+1     :     0.000402
      f-1     :     0.000446
      f+2     :     0.000387
      f-2     :     0.000657
      f+3     :     0.000480
      f-3     :     0.000616
 10 H s       :     0.580691  s :     0.580691
      pz      :     0.012426  p :     0.048076
      px      :     0.018504
      py      :     0.017146
 11 H s       :     0.606220  s :     0.606220
      pz      :     0.018876  p :     0.044390
      px      :     0.012318
      py      :     0.013196
 12 O s       :     3.816161  s :     3.816161
      pz      :     1.667075  p :     4.889709
      px      :     1.376363
      py      :     1.846272
      dz2     :     0.007883  d :     0.050688
      dxz     :     0.015732
      dyz     :     0.009948
      dx2y2   :     0.007094
      dxy     :     0.010032
      f0      :     0.000487  f :     0.003842
      f+1     :     0.000483
      f-1     :     0.000494
      f+2     :     0.000570
      f-2     :     0.000732
      f+3     :     0.000490
      f-3     :     0.000586
 13 H s       :     0.549231  s :     0.549231
      pz      :     0.011970  p :     0.048982
      px      :     0.025153
      py      :     0.011858
 14 H s       :     0.613952  s :     0.613952
      pz      :     0.016094  p :     0.045915
      px      :     0.014514
      py      :     0.015306
 15 O s       :     3.783806  s :     3.783806
      pz      :     1.624766  p :     4.900194
      px      :     1.683309
      py      :     1.592119
      dz2     :     0.009983  d :     0.049114
      dxz     :     0.009754
      dyz     :     0.008935
      dx2y2   :     0.006279
      dxy     :     0.014163
      f0      :     0.000488  f :     0.004216
      f+1     :     0.000521
      f-1     :     0.000854
      f+2     :     0.000488
      f-2     :     0.000747
      f+3     :     0.000558
      f-3     :     0.000561
 16 H s       :     0.600394  s :     0.600394
      pz      :     0.018345  p :     0.046592
      px      :     0.012607
      py      :     0.015640
 17 H s       :     0.565610  s :     0.565610
      pz      :     0.012925  p :     0.047099
      px      :     0.016234
      py      :     0.017940


                     *******************************
                     * LOEWDIN POPULATION ANALYSIS *
                     *******************************

----------------------
LOEWDIN ATOMIC CHARGES
----------------------
   0 O :   -0.330180
   1 H :    0.149916
   2 H :    0.176375
   3 O :   -0.340175
   4 H :    0.173656
   5 H :    0.184069
   6 O :   -0.290115
   7 H :    0.103117
   8 H :    0.191257
   9 O :   -0.346633
  10 H :    0.160666
  11 H :    0.175506
  12 O :   -0.376381
  13 H :    0.200821
  14 H :    0.157228
  15 O :   -0.301503
  16 H :    0.159681
  17 H :    0.152697

-------------------------------
LOEWDIN REDUCED ORBITAL CHARGES
-------------------------------
  0 O s       :     3.451232  s :     3.451232
      pz      :     1.844511  p :     4.815831
      px      :     1.340718
      py      :     1.630603
      dz2     :     0.010116  d :     0.058297
      dxz     :     0.007637
      dyz     :     0.007904
      dx2y2   :     0.010204
      dxy     :     0.022436
      f0      :     0.000696  f :     0.004820
      f+1     :     0.000694
      f-1     :     0.000523
      f+2     :     0.000497
      f-2     :     0.000655
      f+3     :     0.000847
      f-3     :     0.000908
  1 H s       :     0.678205  s :     0.678205
      pz      :     0.049988  p :     0.171878
      px      :     0.052548
      py      :     0.069342
  2 H s       :     0.671591  s :     0.671591
      pz      :     0.043638  p :     0.152034
      px      :     0.070887
      py      :     0.037509
  3 O s       :     3.469138  s :     3.469138
      pz      :     1.342879  p :     4.809750
      px      :     1.768370
      py      :     1.698501
      dz2     :     0.011212  d :     0.056682
      dxz     :     0.012483
      dyz     :     0.016261
      dx2y2   :     0.008290
      dxy     :     0.008437
      f0      :     0.000662  f :     0.004605
      f+1     :     0.000878
      f-1     :     0.000731
      f+2     :     0.000581
      f-2     :     0.000858
      f+3     :     0.000512
      f-3     :     0.000382
  4 H s       :     0.669246  s :     0.669246
      pz      :     0.070443  p :     0.157099
      px      :     0.047038
      py      :     0.039619
  5 H s       :     0.646621  s :     0.646621
      pz      :     0.052914  p :     0.169310
      px      :     0.043418
      py      :     0.072978
  6 O s       :     3.411033  s :     3.411033
      pz      :     1.833380  p :     4.817409
      px      :     1.365393
      py      :     1.618636
      dz2     :     0.009768  d :     0.056672
      dxz     :     0.006757
      dyz     :     0.008966
      dx2y2   :     0.011996
      dxy     :     0.019186
      f0      :     0.000573  f :     0.005001
      f+1     :     0.000956
      f-1     :     0.000449
      f+2     :     0.000410
      f-2     :     0.000713
      f+3     :     0.000963
      f-3     :     0.000936
  7 H s       :     0.687567  s :     0.687567
      pz      :     0.055929  p :     0.209317
      px      :     0.102626
      py      :     0.050762
  8 H s       :     0.661506  s :     0.661506
      pz      :     0.044194  p :     0.147238
      px      :     0.042059
      py      :     0.060985
  9 O s       :     3.472008  s :     3.472008
      pz      :     1.360333  p :     4.811378
      px      :     1.698006
      py      :     1.753039
      dz2     :     0.020545  d :     0.058526
      dxz     :     0.009125
      dyz     :     0.008902
      dx2y2   :     0.006272
      dxy     :     0.013682
      f0      :     0.001436  f :     0.004721
      f+1     :     0.000411
      f-1     :     0.000491
      f+2     :     0.000385
      f-2     :     0.000857
      f+3     :     0.000458
      f-3     :     0.000684
 10 H s       :     0.673114  s :     0.673114
      pz      :     0.037598  p :     0.166220
      px      :     0.068625
      py      :     0.059998
 11 H s       :     0.671308  s :     0.671308
      pz      :     0.080506  p :     0.153187
      px      :     0.035070
      py      :     0.037610
 12 O s       :     3.497814  s :     3.497814
      pz      :     1.662804  p :     4.816741
      px      :     1.350640
      py      :     1.803297
      dz2     :     0.007336  d :     0.057285
      dxz     :     0.019810
      dyz     :     0.010089
      dx2y2   :     0.008591
      dxy     :     0.011459
      f0      :     0.000565  f :     0.004541
      f+1     :     0.000647
      f-1     :     0.000497
      f+2     :     0.000668
      f-2     :     0.001038
      f+3     :     0.000464
      f-3     :     0.000661
 13 H s       :     0.640303  s :     0.640303
      pz      :     0.037816  p :     0.158876
      px      :     0.084488
      py      :     0.036573
 14 H s       :     0.680488  s :     0.680488
      pz      :     0.063110  p :     0.162283
      px      :     0.048896
      py      :     0.050277
 15 O s       :     3.428955  s :     3.428955
      pz      :     1.605579  p :     4.810007
      px      :     1.650803
      py      :     1.553625
      dz2     :     0.011427  d :     0.057622
      dxz     :     0.010471
      dyz     :     0.012269
      dx2y2   :     0.006088
      dxy     :     0.017368
      f0      :     0.000507  f :     0.004919
      f+1     :     0.000738
      f-1     :     0.000955
      f+2     :     0.000476
      f-2     :     0.000851
      f+3     :     0.000682
      f-3     :     0.000710
 16 H s       :     0.675350  s :     0.675350
      pz      :     0.070699  p :     0.164970
      px      :     0.042962
      py      :     0.051309
 17 H s       :     0.675212  s :     0.675212
      pz      :     0.039198  p :     0.172090
      px      :     0.067333
      py      :     0.065559


                      *****************************
                      * MAYER POPULATION ANALYSIS *
                      *****************************

  NA   - Mulliken gross atomic population
  ZA   - Total nuclear charge
  QA   - Mulliken gross atomic charge
  VA   - Mayer's total valence
  BVA  - Mayer's bonded valence
  FA   - Mayer's free valence

  ATOM       NA         ZA         QA         VA         BVA        FA
  0 O      8.7119     8.0000    -0.7119     2.0679     1.6816     0.3863
  1 H      0.6388     1.0000     0.3612     0.8947     0.8509     0.0438
  2 H      0.6498     1.0000     0.3502     0.8974     0.8493     0.0481
  3 O      8.7632     8.0000    -0.7632     2.0334     1.6352     0.3982
  4 H      0.6426     1.0000     0.3574     0.8909     0.8430     0.0478
  5 H      0.5776     1.0000     0.4224     0.8502     0.8068     0.0434
  6 O      8.7501     8.0000    -0.7501     2.0386     1.6548     0.3838
  7 H      0.6075     1.0000     0.3925     0.8824     0.8443     0.0381
  8 H      0.6377     1.0000     0.3623     0.8876     0.8403     0.0473
  9 O      8.7259     8.0000    -0.7259     2.0589     1.6668     0.3921
 10 H      0.6288     1.0000     0.3712     0.8887     0.8422     0.0464
 11 H      0.6506     1.0000     0.3494     0.8962     0.8476     0.0486
 12 O      8.7604     8.0000    -0.7604     2.0228     1.6172     0.4056
 13 H      0.5982     1.0000     0.4018     0.8782     0.8293     0.0489
 14 H      0.6599     1.0000     0.3401     0.9023     0.8522     0.0502
 15 O      8.7373     8.0000    -0.7373     2.0490     1.6630     0.3860
 16 H      0.6470     1.0000     0.3530     0.8968     0.8511     0.0457
 17 H      0.6127     1.0000     0.3873     0.8846     0.8418     0.0428

  Mayer bond orders larger than 0.100000
B(  0-O ,  1-H ) :   0.8374 B(  0-O ,  2-H ) :   0.8376 B(  3-O ,  4-H ) :   0.8348 
B(  3-O ,  5-H ) :   0.7682 B(  6-O ,  7-H ) :   0.8078 B(  6-O ,  8-H ) :   0.8308 
B(  9-O , 10-H ) :   0.8172 B(  9-O , 11-H ) :   0.8397 B( 12-O , 13-H ) :   0.7651 
B( 12-O , 14-H ) :   0.8450 B( 15-O , 16-H ) :   0.8406 B( 15-O , 17-H ) :   0.8095 



                *******************************************
                * RELAXED MP2 DENSITY POPULATION ANALYSIS *
                *******************************************

------------------------------------------------------------------------------
                           ORCA POPULATION ANALYSIS
------------------------------------------------------------------------------
Input electron density              ... orcacalc.pmp2re
BaseName (.gbw .S,...)              ... orcacalc

                    ********************************
                    * MULLIKEN POPULATION ANALYSIS *
                    ********************************

-----------------------
MULLIKEN ATOMIC CHARGES
-----------------------
   0 O :   -0.698077
   1 H :    0.352871
   2 H :    0.343254
   3 O :   -0.736328
   4 H :    0.351849
   5 H :    0.406870
   6 O :   -0.731033
   7 H :    0.378690
   8 H :    0.356340
   9 O :   -0.708272
  10 H :    0.357326
  11 H :    0.343483
  12 O :   -0.731323
  13 H :    0.377452
  14 H :    0.333654
  15 O :   -0.713847
  16 H :    0.346013
  17 H :    0.371078
Sum of atomic charges:    0.0000000

--------------------------------
MULLIKEN REDUCED ORBITAL CHARGES
--------------------------------
  0 O s       :     3.797649  s :     3.797649
      pz      :     1.892196  p :     4.848567
      px      :     1.335874
      py      :     1.620498
      dz2     :     0.009014  d :     0.047732
      dxz     :     0.006567
      dyz     :     0.008443
      dx2y2   :     0.008282
      dxy     :     0.015426
      f0      :     0.000645  f :     0.004129
      f+1     :     0.000660
      f-1     :     0.000524
      f+2     :     0.000489
      f-2     :     0.000575
      f+3     :     0.000605
      f-3     :     0.000631
  1 H s       :     0.597996  s :     0.597996
      pz      :     0.017630  p :     0.049133
      px      :     0.015131
      py      :     0.016372
  2 H s       :     0.611981  s :     0.611981
      pz      :     0.016139  p :     0.044765
      px      :     0.016779
      py      :     0.011847
  3 O s       :     3.803930  s :     3.803930
      pz      :     1.348182  p :     4.880677
      px      :     1.803174
      py      :     1.729321
      dz2     :     0.007839  d :     0.047835
      dxz     :     0.009588
      dyz     :     0.012818
      dx2y2   :     0.008465
      dxy     :     0.009125
      f0      :     0.000581  f :     0.003886
      f+1     :     0.000673
      f-1     :     0.000592
      f+2     :     0.000510
      f-2     :     0.000624
      f+3     :     0.000496
      f-3     :     0.000410
  4 H s       :     0.602874  s :     0.602874
      pz      :     0.016661  p :     0.045277
      px      :     0.015304
      py      :     0.013313
  5 H s       :     0.544445  s :     0.544445
      pz      :     0.015431  p :     0.048686
      px      :     0.013032
      py      :     0.020223
  6 O s       :     3.777680  s :     3.777680
      pz      :     1.895660  p :     4.903623
      px      :     1.372989
      py      :     1.634974
      dz2     :     0.008703  d :     0.045525
      dxz     :     0.006281
      dyz     :     0.008361
      dx2y2   :     0.009126
      dxy     :     0.013054
      f0      :     0.000612  f :     0.004206
      f+1     :     0.000783
      f-1     :     0.000496
      f+2     :     0.000428
      f-2     :     0.000576
      f+3     :     0.000648
      f-3     :     0.000664
  7 H s       :     0.562717  s :     0.562717
      pz      :     0.017103  p :     0.058593
      px      :     0.027206
      py      :     0.014284
  8 H s       :     0.599941  s :     0.599941
      pz      :     0.015814  p :     0.043718
      px      :     0.012753
      py      :     0.015152
  9 O s       :     3.812114  s :     3.812114
      pz      :     1.351432  p :     4.843287
      px      :     1.722062
      py      :     1.769793
      dz2     :     0.013565  d :     0.048912
      dxz     :     0.008058
      dyz     :     0.007923
      dx2y2   :     0.007437
      dxy     :     0.011929
      f0      :     0.001003  f :     0.003959
      f+1     :     0.000401
      f-1     :     0.000442
      f+2     :     0.000386
      f-2     :     0.000643
      f+3     :     0.000478
      f-3     :     0.000605
 10 H s       :     0.593970  s :     0.593970
      pz      :     0.012596  p :     0.048704
      px      :     0.018453
      py      :     0.017655
 11 H s       :     0.611463  s :     0.611463
      pz      :     0.017719  p :     0.045053
      px      :     0.013206
      py      :     0.014128
 12 O s       :     3.820604  s :     3.820604
      pz      :     1.654942  p :     4.858400
      px      :     1.368103
      py      :     1.835356
      dz2     :     0.007902  d :     0.048535
      dxz     :     0.014475
      dyz     :     0.009761
      dx2y2   :     0.006918
      dxy     :     0.009479
      f0      :     0.000481  f :     0.003783
      f+1     :     0.000473
      f-1     :     0.000490
      f+2     :     0.000561
      f-2     :     0.000715
      f+3     :     0.000489
      f-3     :     0.000575
 13 H s       :     0.573484  s :     0.573484
      pz      :     0.012365  p :     0.049064
      px      :     0.024131
      py      :     0.012568
 14 H s       :     0.619545  s :     0.619545
      pz      :     0.016299  p :     0.046801
      px      :     0.014419
      py      :     0.016083
 15 O s       :     3.783365  s :     3.783365
      pz      :     1.619100  p :     4.879416
      px      :     1.670887
      py      :     1.589429
      dz2     :     0.009529  d :     0.046932
      dxz     :     0.009419
      dyz     :     0.008453
      dx2y2   :     0.006368
      dxy     :     0.013163
      f0      :     0.000485  f :     0.004133
      f+1     :     0.000509
      f-1     :     0.000833
      f+2     :     0.000486
      f-2     :     0.000728
      f+3     :     0.000545
      f-3     :     0.000548
 16 H s       :     0.606661  s :     0.606661
      pz      :     0.018130  p :     0.047326
      px      :     0.013340
      py      :     0.015856
 17 H s       :     0.580946  s :     0.580946
      pz      :     0.013578  p :     0.047976
      px      :     0.016520
      py      :     0.017878


                     *******************************
                     * LOEWDIN POPULATION ANALYSIS *
                     *******************************

----------------------
LOEWDIN ATOMIC CHARGES
----------------------
   0 O :   -0.332920
   1 H :    0.150231
   2 H :    0.177618
   3 O :   -0.334557
   4 H :    0.176021
   5 H :    0.179734
   6 O :   -0.289227
   7 H :    0.099966
   8 H :    0.193523
   9 O :   -0.347005
  10 H :    0.158112
  11 H :    0.177641
  12 O :   -0.372457
  13 H :    0.193702
  14 H :    0.159022
  15 O :   -0.299677
  16 H :    0.160997
  17 H :    0.149277

-------------------------------
LOEWDIN REDUCED ORBITAL CHARGES
-------------------------------
  0 O s       :     3.452468  s :     3.452468
      pz      :     1.843093  p :     4.818705
      px      :     1.345901
      py      :     1.629711
      dz2     :     0.010028  d :     0.056908
      dxz     :     0.007528
      dyz     :     0.007882
      dx2y2   :     0.009914
      dxy     :     0.021555
      f0      :     0.000700  f :     0.004839
      f+1     :     0.000697
      f-1     :     0.000526
      f+2     :     0.000501
      f-2     :     0.000659
      f+3     :     0.000847
      f-3     :     0.000910
  1 H s       :     0.678008  s :     0.678008
      pz      :     0.050727  p :     0.171761
      px      :     0.051543
      py      :     0.069491
  2 H s       :     0.670178  s :     0.670178
      pz      :     0.044451  p :     0.152205
      px      :     0.069472
      py      :     0.038282
  3 O s       :     3.469811  s :     3.469811
      pz      :     1.347750  p :     4.804292
      px      :     1.759090
      py      :     1.697453
      dz2     :     0.010850  d :     0.055823
      dxz     :     0.012180
      dyz     :     0.015845
      dx2y2   :     0.008424
      dxy     :     0.008524
      f0      :     0.000667  f :     0.004632
      f+1     :     0.000883
      f-1     :     0.000735
      f+2     :     0.000587
      f-2     :     0.000860
      f+3     :     0.000516
      f-3     :     0.000383
  4 H s       :     0.667007  s :     0.667007
      pz      :     0.069158  p :     0.156972
      px      :     0.047541
      py      :     0.040273
  5 H s       :     0.651210  s :     0.651210
      pz      :     0.052121  p :     0.169056
      px      :     0.044069
      py      :     0.072866
  6 O s       :     3.410844  s :     3.410844
      pz      :     1.830873  p :     4.817783
      px      :     1.370135
      py      :     1.616775
      dz2     :     0.009678  d :     0.055583
      dxz     :     0.006674
      dyz     :     0.008979
      dx2y2   :     0.011714
      dxy     :     0.018538
      f0      :     0.000578  f :     0.005017
      f+1     :     0.000962
      f-1     :     0.000450
      f+2     :     0.000412
      f-2     :     0.000717
      f+3     :     0.000965
      f-3     :     0.000933
  7 H s       :     0.690962  s :     0.690962
      pz      :     0.056503  p :     0.209073
      px      :     0.101491
      py      :     0.051078
  8 H s       :     0.659130  s :     0.659130
      pz      :     0.044922  p :     0.147347
      px      :     0.041472
      py      :     0.060953
  9 O s       :     3.474030  s :     3.474030
      pz      :     1.364920  p :     4.810915
      px      :     1.696793
      py      :     1.749203
      dz2     :     0.019727  d :     0.057312
      dxz     :     0.008953
      dyz     :     0.008751
      dx2y2   :     0.006333
      dxy     :     0.013547
      f0      :     0.001452  f :     0.004747
      f+1     :     0.000409
      f-1     :     0.000489
      f+2     :     0.000385
      f-2     :     0.000864
      f+3     :     0.000459
      f-3     :     0.000689
 10 H s       :     0.675456  s :     0.675456
      pz      :     0.037308  p :     0.166432
      px      :     0.068682
      py      :     0.060443
 11 H s       :     0.669038  s :     0.669038
      pz      :     0.079089  p :     0.153321
      px      :     0.035849
      py      :     0.038384
 12 O s       :     3.499682  s :     3.499682
      pz      :     1.659990  p :     4.811779
      px      :     1.354757
      py      :     1.797032
      dz2     :     0.007364  d :     0.056418
      dxz     :     0.019206
      dyz     :     0.010111
      dx2y2   :     0.008536
      dxy     :     0.011202
      f0      :     0.000572  f :     0.004579
      f+1     :     0.000647
      f-1     :     0.000498
      f+2     :     0.000677
      f-2     :     0.001042
      f+3     :     0.000471
      f-3     :     0.000671
 13 H s       :     0.647467  s :     0.647467
      pz      :     0.038203  p :     0.158831
      px      :     0.083269
      py      :     0.037359
 14 H s       :     0.678478  s :     0.678478
      pz      :     0.063247  p :     0.162500
      px      :     0.048194
      py      :     0.051059
 15 O s       :     3.429532  s :     3.429532
      pz      :     1.606690  p :     4.808778
      px      :     1.646551
      py      :     1.555536
      dz2     :     0.011202  d :     0.056433
      dxz     :     0.010310
      dyz     :     0.011911
      dx2y2   :     0.006146
      dxy     :     0.016863
      f0      :     0.000509  f :     0.004935
      f+1     :     0.000736
      f-1     :     0.000962
      f+2     :     0.000479
      f-2     :     0.000855
      f+3     :     0.000685
      f-3     :     0.000709
 16 H s       :     0.674071  s :     0.674071
      pz      :     0.070236  p :     0.164932
      px      :     0.043525
      py      :     0.051170
 17 H s       :     0.678503  s :     0.678503
      pz      :     0.039652  p :     0.172220
      px      :     0.067431
      py      :     0.065138


                      *****************************
                      * MAYER POPULATION ANALYSIS *
                      *****************************

  NA   - Mulliken gross atomic population
  ZA   - Total nuclear charge
  QA   - Mulliken gross atomic charge
  VA   - Mayer's total valence
  BVA  - Mayer's bonded valence
  FA   - Mayer's free valence

  ATOM       NA         ZA         QA         VA         BVA        FA
  0 O      8.6981     8.0000    -0.6981     2.0756     1.6939     0.3817
  1 H      0.6471     1.0000     0.3529     0.9042     0.8605     0.0437
  2 H      0.6567     1.0000     0.3433     0.9045     0.8565     0.0480
  3 O      8.7363     8.0000    -0.7363     2.0653     1.6733     0.3921
  4 H      0.6482     1.0000     0.3518     0.8952     0.8473     0.0479
  5 H      0.5931     1.0000     0.4069     0.8694     0.8262     0.0431
  6 O      8.7310     8.0000    -0.7310     2.0595     1.6806     0.3789
  7 H      0.6213     1.0000     0.3787     0.9030     0.8655     0.0376
  8 H      0.6437     1.0000     0.3563     0.8924     0.8449     0.0475
  9 O      8.7083     8.0000    -0.7083     2.0726     1.6859     0.3867
 10 H      0.6427     1.0000     0.3573     0.9054     0.8594     0.0460
 11 H      0.6565     1.0000     0.3435     0.9009     0.8521     0.0487
 12 O      8.7313     8.0000    -0.7313     2.0511     1.6522     0.3990
 13 H      0.6225     1.0000     0.3775     0.9061     0.8580     0.0481
 14 H      0.6663     1.0000     0.3337     0.9069     0.8566     0.0502
 15 O      8.7138     8.0000    -0.7138     2.0724     1.6916     0.3808
 16 H      0.6540     1.0000     0.3460     0.9035     0.8578     0.0457
 17 H      0.6289     1.0000     0.3711     0.9063     0.8640     0.0423

  Mayer bond orders larger than 0.100000
B(  0-O ,  1-H ) :   0.8428 B(  0-O ,  2-H ) :   0.8418 B(  3-O ,  4-H ) :   0.8374 
B(  3-O ,  5-H ) :   0.7721 B(  6-O ,  7-H ) :   0.8103 B(  6-O ,  8-H ) :   0.8339 
B(  9-O , 10-H ) :   0.8195 B(  9-O , 11-H ) :   0.8430 B( 12-O , 13-H ) :   0.7675 
B( 12-O , 14-H ) :   0.8474 B( 15-O , 16-H ) :   0.8439 B( 15-O , 17-H ) :   0.8143 



----------------------------------
MP2 DERIVATIVE INTEGRAL GENERATION
----------------------------------


Input Wavefunction Amplitudes       ... orcacalc.mp2tsaa.tmp
Input Correlated Electron Density   ... orcacalc.pmp2re
Input Energy Weighted Density       ... orcacalc.wmp2.tmp
Input SCF Electron Density          ... orcacalc.scfp

One-Electron Terms    ...
                        ... One-Electron Terms done
Prescreening matrices              ... done

Batch handling in the gradient evaluation:
Memory available                      ... 8000.0 MB
Memory per occupied orbital in Q2     ...   12.2 MB
Memory per occupied orbital in Q3     ...    0.1 MB
Total memory requirement per |i>      ...   12.3 MB
Max. Number of orbitals possible      ...    651
Number of orbitals treated per batch  ...     24
Number of batches to be done          ...      1
Batch   0: i=    6 ...    29

---------------------------------------
MP2 TOTAL ENERGY:     -457.913865781 Eh
---------------------------------------

The final MP2 gradient
  0:  -0.03148324   0.01325266  -0.00803750
  1:  -0.00156868  -0.01475805  -0.00167225
  2:   0.03427933   0.00059457   0.00902351
  3:   0.00962760  -0.01401332   0.00325037
  4:  -0.00749342   0.00351784  -0.01947538
  5:  -0.00501304   0.01054162   0.01364828
  6:   0.10832256   0.01096264  -0.01085821
  7:  -0.08156542  -0.03552673  -0.00193824
  8:  -0.02953894   0.02667446   0.01349595
  9:   0.00607248   0.00600625  -0.01764120
 10:  -0.00558060  -0.00228277  -0.01021458
 11:   0.00174577  -0.00015082   0.02880836
 12:   0.02721489   0.02349293   0.02933412
 13:  -0.03434384  -0.02051983  -0.02102627
 14:   0.00456861  -0.00599779  -0.00813872
 15:   0.01645182  -0.01027983   0.00211283
 16:  -0.00633119   0.00719967   0.00397319
 17:  -0.00536468   0.00128648  -0.00464427

-----------------------------------
NORM OF THE MP2 GRADIENT:  0.177920
-----------------------------------

-------------------------   --------------------
FINAL SINGLE POINT ENERGY      -457.913865780503
-------------------------   --------------------


                            ***************************************
                            *     ORCA property calculations      *
                            ***************************************

                                    ---------------------
                                    Active property flags
                                    ---------------------
   (+) Dipole Moment


------------------------------------------------------------------------------
                       ORCA ELECTRIC PROPERTIES CALCULATION
------------------------------------------------------------------------------

Dipole Moment Calculation                       ... on
Quadrupole Moment Calculation                   ... off
Polarizability Calculation                      ... off
GBWName                                         ... orcacalc.gbw
Electron density file                           ... orcacalc.scfp
The origin for moment calculation is the CENTER OF MASS  = ( 0.003938, -0.010918  0.013398)

-------------
DIPOLE MOMENT
-------------
                                X             Y             Z
Electronic contribution:     -0.14020      -0.01243       0.01309
Nuclear contribution   :     -0.17899       1.25873       0.08756
                        -----------------------------------------
Total Dipole Moment    :     -0.31919       1.24630       0.10065
                        -----------------------------------------
Magnitude (a.u.)       :      1.29046
Magnitude (Debye)      :      3.28008



--------------------
Rotational spectrum 
--------------------
 
Rotational constants in cm-1:     0.045549     0.031107     0.019465 
Rotational constants in MHz :  1365.520959   932.568811   583.548000 

 Dipole components along the rotational axes: 
x,y,z [a.u.] :     1.124824    -0.613426    -0.154127 
x,y,z [Debye]:     2.859076    -1.559204    -0.391761 

 

                         *** MP2 UNRELAXED DENSITY ***

------------------------------------------------------------------------------
                       ORCA ELECTRIC PROPERTIES CALCULATION
------------------------------------------------------------------------------

Dipole Moment Calculation                       ... on
Quadrupole Moment Calculation                   ... off
Polarizability Calculation                      ... off
GBWName                                         ... orcacalc.gbw
Electron density file                           ... orcacalc.pmp2ur
The origin for moment calculation is the CENTER OF MASS  = ( 0.003938, -0.010918  0.013398)

-------------
DIPOLE MOMENT
-------------
                                X             Y             Z
Electronic contribution:     -0.13848      -0.02179       0.01334
Nuclear contribution   :     -0.17899       1.25873       0.08756
                        -----------------------------------------
Total Dipole Moment    :     -0.31747       1.23694       0.10089
                        -----------------------------------------
Magnitude (a.u.)       :      1.28101
Magnitude (Debye)      :      3.25607



--------------------
Rotational spectrum 
--------------------
 
Rotational constants in cm-1:     0.045549     0.031107     0.019465 
Rotational constants in MHz :  1365.520959   932.568811   583.548000 

 Dipole components along the rotational axes: 
x,y,z [a.u.] :     1.116603    -0.609200    -0.151845 
x,y,z [Debye]:     2.838180    -1.548463    -0.385960 

 

                           *** MP2 RELAXED DENSITY ***

------------------------------------------------------------------------------
                       ORCA ELECTRIC PROPERTIES CALCULATION
------------------------------------------------------------------------------

Dipole Moment Calculation                       ... on
Quadrupole Moment Calculation                   ... off
Polarizability Calculation                      ... off
GBWName                                         ... orcacalc.gbw
Electron density file                           ... orcacalc.pmp2re
The origin for moment calculation is the CENTER OF MASS  = ( 0.003938, -0.010918  0.013398)

-------------
DIPOLE MOMENT
-------------
                                X             Y             Z
Electronic contribution:     -0.14439      -0.01966       0.01844
Nuclear contribution   :     -0.17899       1.25873       0.08756
                        -----------------------------------------
Total Dipole Moment    :     -0.32338       1.23907       0.10599
                        -----------------------------------------
Magnitude (a.u.)       :      1.28495
Magnitude (Debye)      :      3.26609



--------------------
Rotational spectrum 
--------------------
 
Rotational constants in cm-1:     0.045549     0.031107     0.019465 
Rotational constants in MHz :  1365.520959   932.568811   583.548000 

 Dipole components along the rotational axes: 
x,y,z [a.u.] :     1.119287    -0.614011    -0.145918 
x,y,z [Debye]:     2.845002    -1.560692    -0.370895 

 

Timings for individual modules:

Sum of individual times         ...       32.762 sec (=   0.546 min)
GTO integral calculation        ...        1.198 sec (=   0.020 min)   3.7 %
SCF iterations                  ...        4.639 sec (=   0.077 min)  14.2 %
MP2 module                      ...       26.924 sec (=   0.449 min)  82.2 %
                             ****ORCA TERMINATED NORMALLY****
TOTAL RUN TIME: 0 days 0 hours 0 minutes 33 seconds 993 msec
