18
energy=-0.0331406110 Properties=species:S:1:pos:R:3:forces:R:3 pbc="T T T" Lattice="200.000 0.000 0.000 0.000 200.000 0.000 0.000 0.000 200.000"
O    0.7883250201    2.5602536243   -0.8274480242    0.0385326117    0.0769659789    0.0184008725
H    0.3351413516    1.6192937855   -0.6641632571   -0.0692367280   -0.1177807019   -0.0257429152
C    0.7925513544    3.3114173682    0.3512503577    0.0009929601   -0.0101568867   -0.0267698139
H   -0.0874748534    3.8823975999    0.3680158372   -0.0025258519    0.0023721000    0.0025716176
H    1.5805940761    4.0825564226    0.3337889728    0.0026616062    0.0052568779    0.0051108392
H    0.9637225032    2.7466887996    1.3214770020    0.0014310761    0.0001794630    0.0065614558
O   -0.6747076977   -2.2752788438    0.9905821602   -0.0088898470    0.0495359056   -0.0619049696
H   -1.3011471909   -2.7406393181    0.4631826515   -0.0061336242   -0.0121788024    0.0145277624
C    0.2703875898   -3.0145399095    1.7503454948    0.0351531535   -0.0114151847    0.0277859139
H    1.0367907315   -3.4089179233    1.0233389440   -0.0034673900    0.0006515176    0.0011384846
H   -0.1340579178   -3.8999968607    2.2219770901   -0.0047159178    0.0053520087   -0.0056111760
H    0.5034827486   -2.2586735425    2.6210285404   -0.0014439316   -0.0007811012   -0.0025525914
O   -0.3392019752    0.1316675481   -0.5960833059    0.0257567992    0.0803582926   -0.0107991483
H   -0.0620212866   -0.4680286468    0.0898438682   -0.0062148710   -0.0770019743    0.0597416433
C   -0.7624672973   -0.6308172686   -1.6701732518   -0.0146223790   -0.0020106028   -0.0079493373
H   -1.7449803448   -1.1197696381   -1.5248973638    0.0129979559    0.0085869710   -0.0022301750
H   -0.0489185786   -1.3250329479   -2.0327136254   -0.0036427392    0.0038278587    0.0043626482
H   -1.0405445005    0.2553890058   -2.4889034515    0.0033660885   -0.0017617200    0.0033578610
18
energy=-0.0312854747 Properties=species:S:1:pos:R:3:forces:R:3 pbc="T T T" Lattice="200.000 0.000 0.000 0.000 200.000 0.000 0.000 0.000 200.000"
O    1.9184734341   -0.7423241996   -1.4138099803    0.0396536128   -0.0182347792   -0.0711516857
H    1.1750421454   -0.6698436754   -0.7281406373   -0.0356576040    0.0167836485    0.1167224358
C    2.2528905665   -2.1131280247   -1.2186354229   -0.0020594538    0.0133229434    0.0074824250
H    3.2477581358   -2.4040757551   -1.4706755958    0.0035018428   -0.0025191671   -0.0027659930
H    1.6236126162   -2.6796067514   -1.8622086120   -0.0008875449   -0.0038751670   -0.0038504844
H    2.2569426324   -2.3812402809   -0.1600570788   -0.0032581022    0.0053679496   -0.0005553583
O    0.2672950801   -0.3426953303    0.7649020993    0.0538255345   -0.0249577002   -0.0389141635
H   -0.5581559117   -0.0796419311    0.4133699677   -0.0881158256    0.0384107414    0.0007307076
C    0.5044251925    0.6665710548    1.8478119096    0.0056451145    0.0029999634   -0.0033336926
H    0.1655416089    0.0759500178    2.7234708409    0.0013014925    0.0014871262   -0.0045678222
H   -0.0112109996    1.5751281204    1.4573565332   -0.0001285552   -0.0100694692   -0.0001969465
H    1.5674790511    0.7895271193    2.0465297398   -0.0049925685   -0.0042150668   -0.0004576564
O   -2.0760221309    1.1064829359    0.5996674883    0.0562747675   -0.0107461836    0.0261635477
H   -2.2323442882    1.7458712210    1.2482907642   -0.0154096508   -0.0013976518    0.0001995176
C   -2.7697262688    1.3875495384   -0.6434286095   -0.0132231845    0.0003758953   -0.0320488033
H   -2.6726724805    0.4613142282   -1.1907105865   -0.0001182708    0.0008988577   -0.0001645506
H   -2.3232445699    2.3785777145   -0.9966585385   -0.0000179977   -0.0026122410    0.0021730966
H   -3.8330391180    1.5504605668   -0.5290657488    0.0036643365   -0.0010202138    0.0045343979
18
energy=-0.0232872865 Properties=species:S:1:pos:R:3:forces:R:3 pbc="T T T" Lattice="200.000 0.000 0.000 0.000 200.000 0.000 0.000 0.000 200.000"
O    3.0042000812   -0.0814715629    0.7186854104    0.0320529171   -0.0132879763    0.0092549436
H    2.2488268170    0.2321444616    0.1779271282   -0.0487907999   -0.0056646549   -0.0064822658
C    2.8687571285   -1.4816969365    0.8284024431   -0.0034015697    0.0190158804    0.0037034173
H    2.8874174355   -1.9580845116   -0.2043153404   -0.0018064572   -0.0011713947   -0.0003985210
H    2.0987122332   -1.9019194248    1.4048073020   -0.0000323959    0.0011528827   -0.0055175878
H    3.8656405442   -1.7784567551    1.2925102352    0.0064498699   -0.0019499248    0.0015267212
O   -2.4615860589    0.8247119106   -1.1707544188    0.0590063077   -0.0069080405    0.0070360814
H   -1.9905537152    1.5115763228   -1.6274596775   -0.0072942202    0.0103733736   -0.0146691731
C   -3.2207211921    1.3707318252   -0.1290704855   -0.0138957852    0.0085129232    0.0191279805
H   -4.0554080739    1.9073288761   -0.5982268084    0.0038134605   -0.0027927325   -0.0014264481
H   -2.5708240585    2.1719096557    0.3689213424   -0.0026451511    0.0007013970   -0.0009060568
H   -3.7165365551    0.5504048792    0.4600199738   -0.0011595676    0.0001671217   -0.0005419886
O    0.2002879285    0.2073428442   -0.3309697588    0.0397523432   -0.0166972594    0.0114897467
H   -0.5128435617    0.8190478277   -0.7027438681   -0.0632213746    0.0106726500   -0.0207914844
C   -0.3634298673   -0.9772744638    0.2010589290    0.0050948984   -0.0043019701    0.0005754129
H   -1.2326641895   -1.1701301939   -0.3591236974    0.0022049782    0.0020548258   -0.0003162457
H   -0.6383580656   -0.7829342422    1.2943630063    0.0005003367   -0.0010942616   -0.0019437541
H    0.3481005128   -1.7233339140    0.1945094185   -0.0066308755    0.0012166461    0.0002787076
18
energy=-0.0225699671 Properties=species:S:1:pos:R:3:forces:R:3 pbc="T T T" Lattice="200.000 0.000 0.000 0.000 200.000 0.000 0.000 0.000 200.000"
O   -0.5099950184   -0.2538885363   -2.1459938556   -0.0148208682   -0.0088697923    0.0311777135
H    0.3150807031   -0.3470681999   -2.5337640859    0.0044279542   -0.0022528008    0.0028019884
C   -1.4874901788    0.2305632262   -3.1406785490   -0.0006551171   -0.0021648690   -0.0047601407
H   -1.0060798831    0.3701149929   -4.1540183483   -0.0008474357   -0.0000092560    0.0010865483
H   -1.9449864100    1.1216824930   -2.8171753424    0.0005188487    0.0016707030   -0.0005481592
H   -2.3061504257   -0.4868835615   -3.1169859656   -0.0005147349   -0.0004448009   -0.0021232171
O    2.0259753091    0.8423008855    1.3457400453    0.0373745868    0.0175986882   -0.0040458882
H    1.2456036588    0.3969554281    1.0157277539   -0.0564326333   -0.0293727989    0.0135394303
C    2.3688019216   -0.0138825233    2.4544100075   -0.0063485684   -0.0009770193    0.0016552763
H    1.6468487225   -0.0851550189    3.1945708345   -0.0003332150   -0.0011163731   -0.0052738472
H    3.2460882313    0.4775813936    2.8585420246    0.0027829623    0.0023880408   -0.0006412332
H    2.5305126592   -1.0855812760    2.2028118235   -0.0020280863    0.0000303390    0.0003136746
O   -0.6044611233   -0.5278130096    0.5006494142    0.0251361348    0.0145349615    0.0489404381
H   -0.5670665222   -0.7224585777   -0.3909768821    0.0102437900    0.0079457378   -0.0866112160
C   -1.8210616040   -0.2423416052    1.0939066688   -0.0079303112    0.0076130370    0.0071507526
H   -2.6984669196   -0.8141220641    0.7009075646    0.0078120404    0.0011785938   -0.0006546029
H   -2.1189555902    0.8251891065    0.8116862732    0.0031645140   -0.0071600086    0.0004622844
H   -1.6141802598   -0.3064635181    2.1272781643   -0.0015508895   -0.0005908396   -0.0024698019
18
energy=-0.0209632980 Properties=species:S:1:pos:R:3:forces:R:3 pbc="T T T" Lattice="200.000 0.000 0.000 0.000 200.000 0.000 0.000 0.000 200.000"
O    1.3978311901   -1.5652534079   -0.8160303599    0.0533709634   -0.0160169454   -0.0239056047
H    0.6819050353   -1.0698853349   -0.3061707616   -0.0799237761    0.0095547343    0.0428741768
C    1.8508831542   -2.7471118273   -0.1044561088   -0.0055314718    0.0060924865   -0.0022456017
H    1.2160126542   -2.9385308756    0.7995794053   -0.0026158406    0.0017046415   -0.0013472582
H    2.9043747501   -2.6583431929    0.0375494625    0.0032658155   -0.0014681000   -0.0001223845
H    1.7911139568   -3.5595475273   -0.8181626710    0.0005157633   -0.0017606916   -0.0008973151
O   -0.6758776537   -0.6042283490    0.5795216316    0.0292786965   -0.0392504638   -0.0189166358
H   -0.8768963285    0.2852062439    0.8588704462    0.0061835036    0.0576749904    0.0034262523
C   -1.8561745146   -0.7881276665   -0.2143664778    0.0018990169    0.0024857427   -0.0034118541
H   -2.2512083235    0.1185969575   -0.6374067125    0.0013374880   -0.0022877678    0.0048311032
H   -2.7268158716   -1.1462351430    0.3087366867    0.0033326642    0.0019812922   -0.0006659158
H   -1.7326920390   -1.4841087353   -0.9973858467   -0.0000699340    0.0023587302    0.0042114673
O   -0.3868527219    2.5043077986    0.8921216684   -0.0170093913   -0.0261131541    0.0092230619
H   -0.4776604244    3.2534597932    1.4470493753    0.0010870625   -0.0012747530    0.0051386072
C   -0.2708189180    3.0658433519   -0.4016400930    0.0015411193    0.0038453422   -0.0154651867
H   -1.1714745705    3.3355933364   -1.0112050494   -0.0017663480    0.0020208872    0.0019658656
H    0.1979988459    2.2684991173   -1.0196119668    0.0058631441    0.0048527005   -0.0066046503
H    0.4159388537    3.8734823959   -0.4842571351   -0.0007595039   -0.0044012147    0.0019118725
18
energy=-0.0200431994 Properties=species:S:1:pos:R:3:forces:R:3 pbc="T T T" Lattice="200.000 0.000 0.000 0.000 200.000 0.000 0.000 0.000 200.000"
O   -2.0204037941   -2.4037541172    1.3378948663   -0.0238140735   -0.0302845122   -0.0024744299
H   -1.5845487141   -1.5625271529    1.2084505131    0.0385866049    0.0303333631   -0.0087818606
C   -1.9424258560   -3.0489314403    0.0573531939    0.0000195404    0.0088661928    0.0117082904
H   -2.7521213154   -3.7061805007    0.0305704745   -0.0014043367   -0.0026600635   -0.0008716040
H   -1.0249410635   -3.4769650990   -0.1415425017    0.0016233947    0.0001686644   -0.0013066347
H   -2.0668331257   -2.3430575153   -0.7571255817    0.0014542161    0.0009533651    0.0001635222
O   -0.0324249705   -0.5290806309    0.7935797922   -0.0173842582   -0.0047231169    0.0019725505
H    0.1662324001   -0.5253465338    1.7206672120   -0.0006684869    0.0008474357   -0.0006283777
C   -0.0645364202    0.7472979580    0.2398497003   -0.0183401944   -0.0081272577   -0.0011919635
H   -0.5581598850    0.6766228173   -0.6967552805    0.0042973421   -0.0006957406    0.0034653331
H    0.9653547197    1.1513481503    0.1574301360    0.0268999117    0.0270814316   -0.0063850781
H   -0.5575858624    1.4752749689    0.8981811873    0.0026744617   -0.0024790579    0.0003429852
O    2.0487691043    2.7792429124   -0.6047451432   -0.0099697104   -0.0179699555    0.0146208363
H    2.9300845020    3.1463961179   -0.4958398307   -0.0005286188    0.0001352400    0.0050470759
C    1.9400194245    2.3840181436   -1.9171087745   -0.0011359135   -0.0050625025   -0.0138993847
H    1.9528717988    3.0645943606   -2.6629230542   -0.0016958998   -0.0016660750    0.0030770965
H    0.7741174878    2.0394587682   -2.0482099404   -0.0007625893    0.0032627302   -0.0052172829
H    2.6176773142    1.5168762590   -2.1459975328    0.0001496382    0.0020208872    0.0003609829
18
energy=-0.0196864854 Properties=species:S:1:pos:R:3:forces:R:3 pbc="T T T" Lattice="200.000 0.000 0.000 0.000 200.000 0.000 0.000 0.000 200.000"
O    2.5738434445   -1.8077705396   -1.9928871016    0.0099511984   -0.0066966958   -0.0077205091
H    1.6991517792   -1.7864077446   -2.0943251814   -0.0070299108    0.0082023339    0.0092426023
C    2.9784517488   -0.9745319779   -0.9063128831   -0.0050434763   -0.0004833674   -0.0023721000
H    3.5621554757   -1.6130463306   -0.2005360267    0.0043605913   -0.0024471762    0.0005101069
H    2.0615598132   -0.7036954142   -0.4759255439   -0.0174449362    0.0064041042    0.0093459607
H    3.5991403612   -0.1147832628   -1.2157597307    0.0048563000    0.0007008828   -0.0022975380
O    0.1573321565    0.0685735389    0.4406136509    0.0180717712   -0.0195537552   -0.0228103147
H   -0.3208523278    0.6824778592    1.0538380750   -0.0299919206    0.0292612130    0.0252292088
C   -0.5709107906   -0.2250387191   -0.6776194937   -0.0060066117    0.0034859019    0.0015179794
H   -1.4949111984   -0.8950612479   -0.5321409045    0.0069851736    0.0034082546   -0.0010433537
H    0.0220749579   -0.8654727535   -1.2921939938    0.0033568325   -0.0076757719   -0.0046891783
H   -1.1587695724    0.5844560805   -1.1441107729    0.0021417291   -0.0019257564    0.0032904981
O   -1.8576293140    1.6598021767    1.7270092635    0.0206989246   -0.0102612735   -0.0095475352
H   -1.9008128669    2.6527444692    1.7972427968    0.0029269441    0.0023345618    0.0022106347
C   -3.1965414933    1.2037868354    1.3795928567   -0.0071132145   -0.0037322136   -0.0034483638
H   -3.4566845663    1.7282306772    0.4666706730    0.0000524505    0.0013143480    0.0010140432
H   -3.9320114684    1.4134428283    2.1224219332    0.0024044959   -0.0011040318   -0.0009379385
H   -3.1453448234    0.1272335432    1.1759081239   -0.0031742842   -0.0012320727    0.0025078542
18
energy=-0.0191328970 Properties=species:S:1:pos:R:3:forces:R:3 pbc="T T T" Lattice="200.000 0.000 0.000 0.000 200.000 0.000 0.000 0.000 200.000"
O    0.7351351297    0.9873237729    2.3880024295    0.0200602626    0.0459029366    0.0442024088
H    0.4742760292    0.5826575930    1.5316983906   -0.0148707476   -0.0792650595   -0.0472589365
C    2.0710998603    1.3492535975    2.5846689743   -0.0142706520   -0.0053453239   -0.0012840090
H    2.4034909612    2.0111884649    1.7473582182    0.0033357495    0.0018460522   -0.0014336472
H    2.7324196826    0.4841632070    2.5579513407    0.0010526097   -0.0016321364   -0.0013775972
H    2.0735280881    1.9830604486    3.4933972020    0.0020440272    0.0024713445    0.0025711034
O   -0.8518841404    0.2869175778   -2.4410610321    0.0229167584   -0.0147185383    0.0530747723
H   -0.0142287095   -0.0957952865   -2.8325110874    0.0039574423    0.0122482221   -0.0181473617
C   -1.9779487217   -0.6493149455   -2.5659597415   -0.0108161176   -0.0021340158   -0.0058744569
H   -2.6377056645   -0.3081560260   -3.3858381018    0.0024039816   -0.0035028712    0.0047627118
H   -2.5176476435   -0.5952698983   -1.6649393390   -0.0093906979    0.0026616062   -0.0014609009
H   -1.6481977058   -1.7016032333   -2.9439813656   -0.0003476132   -0.0025505345   -0.0055720952
O   -0.0043176397   -0.3242926816    0.2584238931    0.0162647998    0.0130473211    0.0567586492
H   -0.1950819207    0.2090413060   -0.4924739107   -0.0242907560    0.0217170816   -0.0858738235
C    0.0034873670   -1.6583416304   -0.0923432318    0.0043348803    0.0028991761   -0.0069625479
H   -0.8784083449   -2.1466858083    0.1821146230    0.0044048143    0.0022903389    0.0005872400
H    0.7413932659   -2.1554464543    0.5109605901   -0.0031249190    0.0009358816    0.0007492195
H    0.2364818300   -1.9266844425   -1.0863871478   -0.0036633081    0.0031285186    0.0125402995
18
energy=-0.0177134422 Properties=species:S:1:pos:R:3:forces:R:3 pbc="T T T" Lattice="200.000 0.000 0.000 0.000 200.000 0.000 0.000 0.000 200.000"
O    1.6249872411   -1.5543497594   -0.5253657062    0.0301235611   -0.0059747300   -0.0083298606
H    0.7390350545   -1.2392861340   -0.1840665163   -0.0505160102    0.0041029667    0.0161249318
C    1.8138460080   -2.9064464742   -0.4783203568   -0.0034133968    0.0033717449    0.0004391445
H    1.6984015682   -3.2621156933    0.5572041151   -0.0009975881    0.0003594402   -0.0003872082
H    2.8578998999   -3.1531246942   -0.8188439124    0.0033383206   -0.0003424710   -0.0010202138
H    1.2609279748   -3.4908235508   -1.3169574194   -0.0004643413    0.0001552946    0.0006772286
O   -0.9305070806   -0.5779884422    0.6492884372    0.0196792251   -0.0323136269   -0.0072916491
H   -0.9082075676    0.3789979363    0.7737656829    0.0137158079    0.0472651071   -0.0002941342
C   -2.1154726332   -0.8413928408   -0.0260976420   -0.0060086685   -0.0008664618   -0.0073281588
H   -2.5974209413   -0.0163147169   -0.5890441500    0.0026286961   -0.0013004641    0.0031228621
H   -2.9093984897   -1.2656537289    0.4787024705    0.0040813695    0.0013601137    0.0006916268
H   -1.9184120867   -1.6843794140   -0.7632719654    0.0003075040    0.0022707985    0.0030148758
O   -0.1252109002    2.4813976156    0.7539743528   -0.0144979376   -0.0177719806    0.0049627437
H    0.2947138243    3.1808788164    1.3424937068    0.0016059112   -0.0025309941    0.0032406187
C   -0.2478278667    3.2825717223   -0.4079752370   -0.0015076950    0.0029531693   -0.0094606319
H   -1.2509429977    3.7703075081   -0.5413242704   -0.0003707531    0.0013164049    0.0015889419
H   -0.1665979923    2.6054048327   -1.4231863206    0.0027680499    0.0005214198   -0.0011626529
H    0.4104922010    4.1791506365   -0.5794736185   -0.0004735972   -0.0025762456    0.0014110215
18
energy=-0.0167525810 Properties=species:S:1:pos:R:3:forces:R:3 pbc="T T T" Lattice="200.000 0.000 0.000 0.000 200.000 0.000 0.000 0.000 200.000"
O    1.6548921209    0.0680191641    1.7966617616    0.0007548759   -0.0040705708   -0.0225598893
H    1.5887097620   -0.7985790850    2.0942960253   -0.0001079863   -0.0020723093    0.0001984892
C    1.4051603425    0.8539852857    2.9457772143    0.0006618020    0.0037065026    0.0087628344
H    0.7067759992    0.3615794122    3.6177272628    0.0003496701    0.0001162139   -0.0026631489
H    1.1762098045    1.8254789996    2.5562903783    0.0001043868    0.0020908212    0.0028292421
H    2.3476152626    0.9028528020    3.6021376529   -0.0014922684    0.0010279271   -0.0021083047
O   -1.5284134208   -1.6737018977   -1.7123790764   -0.0345587144   -0.0238891497   -0.0014099931
H   -0.5752526174   -1.4073252790   -1.3833676253    0.0340228964    0.0491620672   -0.0002303709
C   -2.5991482501   -0.7310446511   -1.5457797311    0.0054358267   -0.0052707619   -0.0038540839
H   -3.4406423707   -1.4232997097   -1.4750353597   -0.0023103935   -0.0023129646    0.0003450421
H   -2.6692081791    0.0115568401   -2.4384378886    0.0012433856    0.0011693378    0.0033691738
H   -2.4329729233   -0.0656063777   -0.7157483616    0.0012680682    0.0043389940   -0.0029572831
O    0.6079847545    0.0990795970   -0.9034409626   -0.0157896599   -0.0186163309   -0.0200695185
H    1.2412193543   -0.2500498640   -0.2658736314    0.0142809365   -0.0010423253    0.0368284844
C    0.3342609308    1.4954850063   -0.6284474185   -0.0062539518    0.0005605005    0.0066339609
H    1.0801068860    2.1594274538   -1.0212819542   -0.0008700614   -0.0045832488    0.0005291331
H    0.2444968075    1.7400113173    0.4021933640    0.0010716359   -0.0014629578   -0.0046099883
H   -0.6816927900    1.5751888088   -1.1630389732    0.0021890374    0.0011472263    0.0009636495
18
energy=-0.0162660958 Properties=species:S:1:pos:R:3:forces:R:3 pbc="T T T" Lattice="200.000 0.000 0.000 0.000 200.000 0.000 0.000 0.000 200.000"
O   -0.6106612043    1.8769416393    0.5701957354   -0.0018362820    0.0108608548   -0.0151828795
H   -1.2084738081    1.7243077132    1.3281409167    0.0002509397    0.0016635039   -0.0029793946
C    0.5161333325    1.0652700398    0.8059168723    0.0041898700    0.0033974560   -0.0000915313
H    1.3296141527    1.3171499025    0.0894024311   -0.0006746575   -0.0027356540    0.0020892786
H    0.4043731495   -0.0220263585    0.9251078587    0.0038962500   -0.0152049910    0.0020733377
H    0.9228791459    1.2342804245    1.8768822130   -0.0014665574   -0.0004221752   -0.0010351262
O    0.8996722987   -2.6849193454    1.0678911180   -0.0063208005    0.0230648540   -0.0003357861
H    0.1541431020   -2.7650085513    0.4661884233   -0.0007121956   -0.0056034626   -0.0078974011
C    1.0569508327   -3.9027283073    1.7121399698    0.0030128189   -0.0107225294    0.0080501246
H    0.6155623834   -4.7312366052    1.1263409398    0.0007173378    0.0048372738   -0.0003270443
H    0.5349738153   -3.8499071498    2.6209354675    0.0000241684    0.0002206007   -0.0012768099
H    2.0421144738   -4.2184146588    1.9045005048   -0.0004638270    0.0008669761   -0.0009147986
O   -0.7130523345    2.4448520479   -1.8945432172   -0.0036267984   -0.0097655648   -0.0273652814
H   -0.7639022045    2.6138102222   -0.8839460923    0.0006499749   -0.0105754623    0.0420545091
C   -1.0578368898    1.1700105633   -2.3424422690    0.0027942751    0.0111447046    0.0030385299
H   -0.2333173495    0.6626118029   -2.8551814296    0.0012248736   -0.0016804732   -0.0019694652
H   -1.7754101603    1.2205478091   -3.1559626631   -0.0012007053   -0.0010587804   -0.0024728872
H   -1.4308607538    0.6988059222   -1.4639275799   -0.0004591991    0.0017108122    0.0045415970
18
energy=-0.0157249702 Properties=species:S:1:pos:R:3:forces:R:3 pbc="T T T" Lattice="200.000 0.000 0.000 0.000 200.000 0.000 0.000 0.000 200.000"
O   -1.2005776059   -3.0397976382    0.6326463307    0.0038566550   -0.0326874654   -0.0179802400
H   -0.9314461107   -2.2249973650    0.9890760946   -0.0044341248    0.0477489888    0.0149026293
C   -0.3404486133   -3.4332262804   -0.4177907822   -0.0089525819    0.0029968781    0.0104865021
H   -0.5896564231   -4.4234694014   -0.7428908422    0.0007363640   -0.0023505027   -0.0019051876
H    0.7203052075   -3.3821226840   -0.1189310350    0.0023232490    0.0003491558   -0.0006751717
H   -0.4902599451   -2.7654268883   -1.2816122852    0.0005805551    0.0008978293   -0.0013472582
O   -0.9563267841   -0.4540380884    1.4286587145   -0.0008263526   -0.0219705924    0.0030354446
H   -1.8681644567   -0.0735840047    1.4704884372    0.0024852285   -0.0017982297   -0.0007358498
C   -0.2864168942    0.4619011632    0.5407953171    0.0078608914    0.0068967276   -0.0105070710
H    0.6338917459   -0.0359126955    0.2046750692   -0.0005975244    0.0013930238    0.0000097702
H   -0.0566686294    1.3583495460    1.1107092776    0.0033876858    0.0044341248   -0.0018717632
H   -0.8117473144    0.7064986957   -0.3919343921    0.0018619930    0.0006582025    0.0015637451
O    1.5590221059    2.6588604119   -0.6783173511   -0.0059114808   -0.0106963042    0.0101208912
H    2.4915503592    2.3881603794   -0.8244520142    0.0011508259   -0.0030380157    0.0009939886
C    1.2146100581    3.7773668136   -1.5663524016   -0.0031917677    0.0093680722   -0.0062529234
H    1.1542982997    4.7627368602   -0.9205729089    0.0005178202   -0.0014274766    0.0001506667
H    0.1252090529    3.6043517242   -1.9793741144    0.0005399317    0.0006396905   -0.0014624436
H    2.1101461881    3.7353570465   -2.2703319731   -0.0013883958   -0.0014120500    0.0014752991
18
energy=-0.0151217754 Properties=species:S:1:pos:R:3:forces:R:3 pbc="T T T" Lattice="200.000 0.000 0.000 0.000 200.000 0.000 0.000 0.000 200.000"
O   -2.2066292390   -0.2015035048   -2.6480181999    0.0065989939   -0.0147622470    0.0234026969
H   -2.3759119068   -1.0568301051   -3.0442413398   -0.0056271168   -0.0011708805   -0.0045811920
C   -1.2629227983    0.6089350030   -3.3797840469    0.0100730687    0.0104309663   -0.0113971869
H   -1.7588029701    1.1514708894   -4.2083401225   -0.0004730830   -0.0022281182    0.0033619747
H   -0.6249401021   -0.1226441346   -3.8401586217   -0.0013287462    0.0009343390    0.0002997907
H   -0.6790548782    1.2360940909   -2.7806712051    0.0008834311    0.0014089646   -0.0025541341
O   -0.4232192710    0.3341537410    0.7973939673    0.0110788843   -0.0023145072    0.0067964546
H   -1.2836025066    0.6556758746    0.8795311694   -0.0017200681    0.0010392400   -0.0012737246
C   -0.3688641852   -0.9640250375    0.2578568113    0.0084193350    0.0017416654    0.0093269345
H   -0.8704817430   -1.0016904844   -0.7558030569   -0.0146208363    0.0044742341   -0.0172505608
H   -0.8308581422   -1.7879476053    0.8387828726   -0.0002046598    0.0018100568   -0.0008150398
H    0.6093651551   -1.2003446371    0.0765287675   -0.0020872217    0.0022234902    0.0000606780
O    2.1309884614    0.7444752981    2.2020870196    0.0136453597    0.0036180566    0.0088363680
H    1.3195519420    0.6725483912    1.6365489746   -0.0234942282   -0.0095922724   -0.0119710572
C    2.2751341625   -0.4926774814    2.8393007677   -0.0029788803   -0.0023931830   -0.0056636265
H    1.6754114597   -1.1505644931    2.2088682684   -0.0002607099    0.0036648507   -0.0005306757
H    1.6988054566   -0.4455758982    3.8286020103   -0.0001285552    0.0006931695    0.0022707985
H    3.3734696993   -0.7720375962    2.9488575586    0.0022260613    0.0004237178    0.0016835585
18
energy=-0.0139228961 Properties=species:S:1:pos:R:3:forces:R:3 pbc="T T T" Lattice="200.000 0.000 0.000 0.000 200.000 0.000 0.000 0.000 200.000"
O   -1.5569637337    1.7088913216    1.6229805533   -0.0182440352    0.0087690051    0.0133393984
H   -0.9279702172    1.0519626982    1.4046614663    0.0253875887   -0.0133404269   -0.0098077308
C   -1.6898732025    1.5471025404    2.9909422958    0.0036129144    0.0020039180   -0.0100314168
H   -2.1354324112    0.5711613184    3.0898630365   -0.0002385984   -0.0016043685    0.0008119544
H   -2.4316567726    2.3555043535    3.2778456374   -0.0021247598    0.0014053651    0.0015673446
H   -0.7951888157    1.6755794917    3.5470239016    0.0003609829   -0.0009075995   -0.0005867258
O    0.5135439621   -0.0573083429    0.0470706261   -0.0078331235    0.0143549842    0.0373704730
H    0.2810911284   -0.1663860364   -0.9278281748   -0.0050671305   -0.0208063968   -0.0465626817
C    1.6479045383    0.7887645017    0.1788024090    0.0002766507   -0.0006180932   -0.0033594036
H    1.4408232584    1.9095835588   -0.1198941185    0.0009687917   -0.0008541205   -0.0004185756
H    2.5963007546    0.3698137423   -0.2493298186   -0.0013385164    0.0004273174    0.0006314630
H    1.8561235621    0.8727453681    1.2973849650   -0.0007631035   -0.0008366370   -0.0002329420
O    0.2088598091   -1.3866071123   -2.6125305860    0.0024692877    0.0186451273    0.0171867975
H   -0.7380476071   -1.6731377382   -2.7939663333   -0.0031552580    0.0022440590   -0.0000735336
C    0.9296468588   -2.5583595303   -2.1281749463    0.0075132782   -0.0066041361    0.0026446369
H    0.6017484737   -3.5908001809   -2.3373466580   -0.0006726006    0.0024867712    0.0007399635
H    0.9781041669   -2.5001981489   -1.0611274411   -0.0010454106   -0.0035116130   -0.0016187667
H    1.9446571781   -2.4309473439   -2.5773577753   -0.0001059295   -0.0012510989   -0.0015997405
18
energy=-0.0130596966 Properties=species:S:1:pos:R:3:forces:R:3 pbc="T T T" Lattice="200.000 0.000 0.000 0.000 200.000 0.000 0.000 0.000 200.000"
O    0.6743112779   -2.9838826848    1.6669433704    0.0065357447   -0.0027989031    0.0181884993
H    0.0962466417   -2.2602745186    1.9197802651   -0.0027536517    0.0026132694   -0.0135898239
C   -0.0047910855   -3.5925795559    0.5465279942   -0.0078063840    0.0068453056   -0.0154579876
H   -0.7470669672   -4.3266307296    0.7699849899    0.0012814379   -0.0032560453    0.0032874127
H    0.6919477762   -4.1420696716   -0.0019188838    0.0010808918   -0.0010664937    0.0014686142
H   -0.3851325591   -2.7080891294    0.0251140114    0.0012942934    0.0052517357    0.0007579613
O   -0.8053835008    0.2843170644   -0.3255399039   -0.0103039538   -0.0316194290   -0.0006638589
H   -0.4324455049    1.2160822299   -0.0260822047    0.0151993346    0.0468321333    0.0176033162
C   -0.4736358454    0.0832630798   -1.6819822561    0.0014701569   -0.0000190262   -0.0048254468
H   -0.7169730066   -1.0348976239   -1.9708406087   -0.0000833037   -0.0007841865   -0.0010320409
H    0.5667032192    0.4498175993   -1.9112773651   -0.0029511124   -0.0012948076    0.0020635676
H   -1.0778255893    0.7112231932   -2.4272200371    0.0004237178   -0.0022157769    0.0034622478
O   -0.0511596791    2.8154780290    0.4126298591   -0.0059875855   -0.0200870021   -0.0117077762
H    0.4126649862    3.1218305129    1.2120805069   -0.0001696928   -0.0033203229    0.0030981795
C    0.6536361890    3.2572932394   -0.7299345350    0.0028415834    0.0038294013   -0.0016280226
H    1.7352646958    3.2810703218   -0.6040357612    0.0003213879    0.0000390808    0.0000941024
H    0.3204328678    4.2542193779   -1.0645777101    0.0000894744   -0.0009291968   -0.0003589260
H    0.3412125739    2.6008119455   -1.5372344827   -0.0004802821    0.0019802638   -0.0007574470
18
energy=-0.0126984382 Properties=species:S:1:pos:R:3:forces:R:3 pbc="T T T" Lattice="200.000 0.000 0.000 0.000 200.000 0.000 0.000 0.000 200.000"
O    2.2787776120    1.8090337642    1.7892870160   -0.0175709203   -0.0177894641   -0.0116656101
H    2.6851545642    0.9884717869    1.8562783498    0.0074664841    0.0016244231    0.0017678907
C    2.8650071361    2.6936388326    2.7080858502    0.0022291466    0.0124122585    0.0079148846
H    2.0647549308    3.4088440583    3.0434917527    0.0009595358   -0.0007569328   -0.0006890557
H    3.5163319610    3.3073706400    2.1353056076   -0.0020789942   -0.0026898883   -0.0006474038
H    3.3921696414    2.2885446440    3.5683373198   -0.0014187348   -0.0018481091   -0.0020975061
O   -2.3598123178   -2.3214695443   -1.8928760661   -0.0101491734   -0.0001984892   -0.0136258193
H   -1.5433958911   -2.1988027346   -1.2906655891    0.0154317623    0.0141276987    0.0123058149
C   -2.5190459626   -1.3032254267   -2.8159081273    0.0023926688   -0.0054959905    0.0098802360
H   -2.0829976030   -0.3580157978   -2.4708752506    0.0007070534   -0.0017817746    0.0013745119
H   -3.5471860200   -1.1009974169   -2.9008195670   -0.0018223981    0.0004905665   -0.0014434174