18
energy=-0.0043833733 Properties=species:S:1:pos:R:3:forces:R:3 pbc="T T T" Lattice="200.000 0.000 0.000 0.000 200.000 0.000 0.000 0.000 200.000"
O    0.3304859157    0.8807674070    1.5534606671   -0.0048105344    0.0042171237   -0.0038849372
H    1.0272887801    0.2429808021    1.2966236523    0.0024533468   -0.0028333559   -0.0020939066
C   -0.4240230082    0.0734210430    2.4518799848   -0.0022677132   -0.0014151353    0.0020265437
H   -1.2680482424   -0.5015773654    1.9742297503    0.0007733879    0.0000107986   -0.0000879317
H   -0.7818035573    0.9163900784    3.0371389527    0.0003121319   -0.0002242002   -0.0002607099
H    0.1532697808   -0.4767983262    3.1555422151    0.0003203595    0.0003183026   -0.0009790762
O   -1.1484774024    2.3222642161   -0.5466674653   -0.0016480772    0.0029696244   -0.0073615831
H   -0.9776918024    1.7807613940    0.1901599047    0.0050897562   -0.0035974878    0.0104042268
C   -1.1898681320    3.7892913524   -0.3876075336    0.0003496701   -0.0007764732    0.0005856973
H   -0.3257319630    4.0350851084    0.1365083154   -0.0001151854   -0.0004509715    0.0003501843
H   -2.1356744347    4.0960107213    0.0835387300   -0.0000349670    0.0000133697    0.0001506667
H   -1.2189868954    4.1585193392   -1.4650990041   -0.0001275267    0.0002329420   -0.0006859704
O    1.2088171941   -2.7984286587   -1.4451327768   -0.0001419249    0.0027320544    0.0031094924
H    0.8959458973   -2.4489720181   -2.2486139046   -0.0004864528    0.0010171285   -0.0012079044
C    1.1841105013   -4.2248339733   -1.5835563975    0.0000395950   -0.0031830260   -0.0006237497
H    0.1739234438   -4.7563463219   -1.5451894649    0.0002442548    0.0005964960   -0.0001923185
H    1.7283298855   -4.6377697465   -0.8064874420    0.0004360591   -0.0003167599   -0.0000802184
H    1.6463299882   -4.5160782199   -2.5781956361   -0.0003861797    0.0006890557    0.0008335517
18
energy=-0.0041461989 Properties=species:S:1:pos:R:3:forces:R:3 pbc="T T T" Lattice="200.000 0.000 0.000 0.000 200.000 0.000 0.000 0.000 200.000"
O   -0.6877089257   -4.3296976672   -0.9597191181    0.0038165458   -0.0046917494    0.0003347577
H    0.1006317041   -3.7193682370   -1.0584708974   -0.0022090920    0.0023674720    0.0004941661
C   -1.7770555751   -3.6066407402   -1.6904712000   -0.0025119680    0.0057032215   -0.0001501524
H   -1.7192989984   -2.5880359290   -1.4118992918    0.0007240227    0.0004617702    0.0010161000
H   -2.6729128812   -4.1041769473   -1.3230966754    0.0001264983   -0.0003332150    0.0000452514
H   -1.6932373201   -3.7394828183   -2.7666887262    0.0002257429   -0.0008726325   -0.0002267713
O   -0.7379260200    0.8571898983    0.2374936823   -0.0043791032   -0.0032200498   -0.0011425983
H    0.1989850575    1.2320408246    0.3079219601    0.0079159130    0.0031007506    0.0022887962
C   -1.5812985008    1.8758529981   -0.4132721713   -0.0004298885   -0.0000303390   -0.0011271717
H   -2.4394985045    1.4470515123   -0.9536624162    0.0000179977    0.0001018157   -0.0000107986
H   -0.8799117057    2.3952443712   -1.1051409858    0.0000894744    0.0000277679    0.0002586530
H   -1.9944482071    2.6087811165    0.2414420877    0.0003892650   -0.0003861797    0.0000761047
O    1.6678910386    2.3293007541    1.4713317271   -0.0056718540   -0.0024749441   -0.0009065710
H    1.8067254577    1.6734620043    2.1483477043    0.0005070216   -0.0006206643    0.0003136746
C    2.9996077744    2.9128803748    1.2857158412    0.0026019566    0.0007481911   -0.0017144117
H    2.8733662586    3.6592527998    0.5299149448    0.0000205688   -0.0000632491    0.0000920455
H    3.5893010256    1.9338000473    1.0141961353   -0.0005697565    0.0003347577    0.0001753492
H    3.2594704854    3.2633296160    2.2331543736   -0.0006633447   -0.0001532378    0.0001840910
18
energy=-0.0033185102 Properties=species:S:1:pos:R:3:forces:R:3 pbc="T T T" Lattice="200.000 0.000 0.000 0.000 200.000 0.000 0.000 0.000 200.000"
O   -0.3159751758    1.3008188454    1.7180332016    0.0031917677    0.0008345801   -0.0046778654
H    0.0892613841    0.4302239154    1.6043621126   -0.0013719407   -0.0027361682    0.0006875130
C   -1.0159931209    1.6175350739    2.9543097560   -0.0007883003    0.0013174334    0.0010130147
H   -1.9861162046    1.2639814457    2.6449740764    0.0004735972   -0.0001506667   -0.0003450421
H   -0.8789189909    2.7228334101    3.2210501798   -0.0000282821   -0.0002673947   -0.0000930739
H   -0.6414122336    0.9811140185    3.8169186469    0.0002828214   -0.0002709943   -0.0004679408
O   -0.0955817673    2.4434577607   -1.9821231294    0.0009708486   -0.0007193947   -0.0007327645
H   -0.6571254334    2.9003956009   -1.2938665008   -0.0001357543   -0.0006288919    0.0017288099
C    0.9782613339    1.8386621477   -1.3331176950   -0.0003532696    0.0030179611   -0.0026652057
H    1.2789732358    0.9157904753   -1.8875046363   -0.0003815517   -0.0022594856   -0.0010742070
H    0.5913676358    1.5212926238   -0.3589796045   -0.0027505664    0.0011317997    0.0062477811
H    1.8823464428    2.6709871591   -1.3229451203    0.0000169693   -0.0002242002    0.0000298248
O    0.0515999894   -2.9880008085   -0.3788117281   -0.0024744299   -0.0009780477    0.0029963638
H   -0.2179805964   -2.3020483174   -1.0895271180    0.0035882318    0.0014619294   -0.0027953036
C    0.4286648145   -4.2369250056   -0.9442727599    0.0004154903    0.0003069897   -0.0002005461
H   -0.3486158811   -4.8300563886   -1.4273390626   -0.0000997588   -0.0001419249   -0.0001285552
H    0.7323265441   -4.7885449623   -0.1095493689    0.0000869033   -0.0004052059    0.0000982161
H    1.2116299414   -4.1882340013   -1.6580944369   -0.0006427758    0.0007096245    0.0003779522
18
energy=-0.0032653119 Properties=species:S:1:pos:R:3:forces:R:3 pbc="T T T" Lattice="200.000 0.000 0.000 0.000 200.000 0.000 0.000 0.000 200.000"
O   -0.8074066775   -0.9495613271    2.7516386111   -0.0007301934   -0.0021463571   -0.0029541978
H   -0.0450422787   -0.5741128866    3.2242169936    0.0008253242   -0.0004627986   -0.0004088054
C   -1.7426436445    0.1762660797    2.7192066074   -0.0011724231    0.0015534606    0.0003198453
H   -2.2905319945    0.2106640566    3.5487320709    0.0001465529   -0.0002442548   -0.0002319135
H   -2.4271360559    0.0966817112    1.8141729637   -0.0002859067    0.0004653697    0.0000313675
H   -1.2530483760    1.1247584472    2.6423898975    0.0001249556   -0.0000092560   -0.0002735654
O   -1.1081446828   -2.4927314490   -0.0479826238    0.0009312536   -0.0005435312   -0.0042428348
H   -1.2008728521   -2.1403700927    0.8105255962    0.0008782889    0.0024919134    0.0057505298
C   -0.5016936674   -1.5332676617   -0.9186746885   -0.0008196677   -0.0005121638    0.0014135926
H   -0.1674946780   -2.0732165611   -1.8976593398    0.0002812787   -0.0002756223   -0.0009621069
H    0.4600899301   -1.1419226531   -0.4706332395    0.0007970420    0.0003275586    0.0004833674
H   -1.2289653829   -0.6945113707   -1.1504090470    0.0000905028    0.0000334243   -0.0004113765
O    1.3907450433    2.5110943211   -2.3546146208    0.0049180065    0.0029397996   -0.0003959499
H    1.0590706223    1.6952443490   -2.7663613107   -0.0024703161   -0.0034324230    0.0023859839
C    2.7393714918    2.3111163727   -2.2109331825   -0.0045086868   -0.0015442047   -0.0012752673
H    3.2934121062    2.8208243193   -2.9683766099    0.0007636177    0.0005435312   -0.0001748350
H    3.1179538786    1.3229803775   -2.1966291182   -0.0005651285    0.0002098020    0.0000195404
H    3.1147264599    2.7659575879   -1.2404374629    0.0007970420    0.0006062662    0.0009271399
18
energy=-0.0032345630 Properties=species:S:1:pos:R:3:forces:R:3 pbc="T T T" Lattice="200.000 0.000 0.000 0.000 200.000 0.000 0.000 0.000 200.000"
O   -0.4756414971    2.1359828445    2.0022183863   -0.0035177836    0.0033270077    0.0017756040
H    0.1563467169    1.5519802006    1.5474629907    0.0038653968   -0.0068067390   -0.0007137383
C   -1.0598287781    1.4365176126    3.1102569785    0.0012711535    0.0005795267   -0.0007728737
H   -1.8989330753    0.8246327084    2.6694066025   -0.0003892650   -0.0005373606   -0.0002689374
H   -1.3721269060    2.0600414854    3.8862170253   -0.0003013333    0.0002134016    0.0000869033
H   -0.4194872162    0.7403876512    3.6482825271    0.0000442230   -0.0001604368   -0.0006797997
O    1.2192697143   -0.1678550863    1.4440269379   -0.0013169191    0.0029315720    0.0006242639
H    0.7958891034   -0.6933549931    0.8035608892   -0.0007060250    0.0000509078   -0.0004951945
C    2.5445729039   -0.0877603051    0.9634177329    0.0011014607    0.0003517269    0.0001933470
H    2.5730520672    0.1283565020   -0.1232794040   -0.0000920455   -0.0001300978   -0.0009430807
H    3.0712420421   -1.0618741628    1.0875292053   -0.0001974607   -0.0000997588   -0.0002509397
H    2.9508348010    0.6130159640    1.6442641590    0.0000200546   -0.0002154585   -0.0001784346
O   -0.5887728555   -1.1499727015   -3.8811571889    0.0036062296    0.0003861797    0.0023052513
H   -1.0169945451   -0.3771069995   -3.6130560092   -0.0015570602    0.0010284413   -0.0007168236
C   -1.6233299408   -2.1608128689   -3.5844976137   -0.0016696745   -0.0013498293    0.0001182708
H   -2.5059219450   -1.9281610246   -4.1545337492    0.0006525460    0.0000827895    0.0007620750
H   -1.8517804802   -2.0634196241   -2.4879128627   -0.0008134971    0.0004998225   -0.0002601957
H   -1.2889702345   -3.1057622204   -3.8330220447    0.0000000000   -0.0001506667   -0.0005846689
18
energy=-0.0031352687 Properties=species:S:1:pos:R:3:forces:R:3 pbc="T T T" Lattice="200.000 0.000 0.000 0.000 200.000 0.000 0.000 0.000 200.000"
O    1.8576503831   -1.9067333561   -0.5333369104   -0.0019905482    0.0064817516   -0.0015503753
H    1.5236553342   -1.7951252869    0.3344973750    0.0010690648   -0.0024415197    0.0034596767
C    1.8185258729   -3.2002343434   -0.8558601937   -0.0003069897   -0.0044536652   -0.0020609964
H    0.7634465132   -3.4928822721   -0.9511056996    0.0004741115    0.0002833356    0.0004077770
H    2.4141253833   -3.8391421322   -0.1303254767   -0.0004679408    0.0012845232   -0.0002828214
H    2.3576087251   -3.1314437635   -1.8170114625    0.0001280409   -0.0001645506    0.0001203276
O   -1.7713947342    0.4543173105    2.2735914317   -0.0008613196   -0.0013272036    0.0039913808
H   -1.0110474068    1.0122947837    2.2386755705   -0.0005347895    0.0008592627   -0.0035033854
C   -2.8522743875    1.1679477217    1.5458626444    0.0004149761   -0.0004026348   -0.0009811330
H   -2.8304750249    2.1843430308    1.7745313437    0.0004710261   -0.0001660933   -0.0006654015
H   -3.7775881187    0.6603889810    1.9113570579   -0.0002771649   -0.0003260159    0.0008515494
H   -2.6731147093    1.0926483973    0.4741565057    0.0020507120    0.0014228486   -0.0006741433
O   -0.1109239738    1.4231789206   -0.9321870823   -0.0036869622    0.0022137200    0.0001085006
H   -0.0264123479    0.5055175078   -1.1744689851    0.0026482365   -0.0032832990    0.0002792218
C    1.0044694461    2.0669148577   -1.5593251140    0.0013796541    0.0009435949    0.0000689056
H    0.9810987742    3.1786684102   -1.4268169098   -0.0001763777    0.0001501524    0.0001804915
H    1.0879443334    1.7181356994   -2.6194371874   -0.0001064437   -0.0005306757    0.0002936200
H    1.9312522424    1.9580873349   -1.0827750864   -0.0002272855   -0.0005409601   -0.0000442230
18
energy=-0.0030225047 Properties=species:S:1:pos:R:3:forces:R:3 pbc="T T T" Lattice="200.000 0.000 0.000 0.000 200.000 0.000 0.000 0.000 200.000"
O    0.3669535980   -0.8645274674    3.2310918909    0.0000411377    0.0014891831   -0.0034005413
H    1.0773270809   -1.5417139312    3.0011698862   -0.0000575927    0.0003604687   -0.0008618338
C   -0.0799579689   -1.1676548302    4.5622702933   -0.0009117132   -0.0003327008    0.0011045460
H   -0.6154504520   -2.1437190910    4.5187671678    0.0000755904    0.0000838180   -0.0001604368
H   -0.8306463465   -0.3327602300    4.6591882249   -0.0001912901    0.0000282821    0.0005342753
H    0.4571996936   -1.0762160712    5.4718520318    0.0001599226    0.0001861479   -0.0000997588
O   -0.6762442509    0.2157777567    0.5541183144   -0.0007795585    0.0011888782   -0.0058734285
H   -0.1009220115   -0.0938293245    1.2418414080    0.0026127552   -0.0031850828    0.0065316310
C   -1.3681729868    1.4918523495    0.8132784433   -0.0002730512    0.0010166143   -0.0001393538
H   -2.2799643517    1.4533995944    0.3043120233    0.0003188168   -0.0000457656    0.0001059295
H   -0.9112340764    2.4586090779    0.5757247903   -0.0001686644   -0.0007188805    0.0001285552
H   -1.4921432165    1.6004408988    1.9354867540    0.0003537838   -0.0004381160   -0.0004509715
O    0.5664666889    0.7347832929   -4.2735085341    0.0035162409   -0.0036905618   -0.0044202409
H    0.3657687755    0.6232437454   -3.3519667268   -0.0027392535    0.0009420523    0.0048573285
C    1.1437061640   -0.3634398915   -4.9670062879   -0.0025376790    0.0041538746    0.0030565277
H    1.8183694212    0.1324237588   -5.6953717615    0.0005702707   -0.0000493652   -0.0007960136
H    0.5406321891   -0.8987926368   -5.6131045543    0.0000303390   -0.0006556314   -0.0005527872
H    1.5160832010   -1.0792131400   -4.1646358087   -0.0000205688   -0.0003347577    0.0004350307
18
energy=-0.0026156945 Properties=species:S:1:pos:R:3:forces:R:3 pbc="T T T" Lattice="200.000 0.000 0.000 0.000 200.000 0.000 0.000 0.000 200.000"
O   -5.4704944482   -0.8816645855    0.7506879769   -0.0065532282    0.0013894243    0.0029295152
H   -5.6813152044   -0.0144108605    0.4673523506    0.0012156177   -0.0008242957   -0.0008083549
C   -4.1513515202   -1.1892988018    0.2508208046    0.0055731236   -0.0004751399   -0.0021715539
H   -4.0009281353   -2.2409687065    0.3274867302    0.0000457656    0.0000941024   -0.0000539932
H   -3.5078425169   -0.8322863998    1.0868846640    0.0000035995   -0.0002565961   -0.0017473218
H   -3.8470199371   -0.9242526617   -0.7175557621    0.0010803776    0.0002432264    0.0016444777
O    1.0625938628    0.0329440583   -0.6543040970   -0.0046089599   -0.0013086916   -0.0017293241
H    1.9313763608    0.2312026890   -0.1904843651    0.0068895285    0.0016012832    0.0028040453
C    1.4074936972   -0.4189452198   -1.9766085377    0.0003692104   -0.0000431945    0.0003085324
H    2.2055734701    0.1687460801   -2.4092779197   -0.0002288282   -0.0000822753    0.0003033902
H    0.4908283266   -0.2877043345   -2.5595936513   -0.0004036632    0.0000102844   -0.0003177884
H    1.6306168465   -1.5179254110   -2.0259872545   -0.0000725051    0.0001146712   -0.0000339386
O    3.6265220041    0.5678525292    0.4890868294   -0.0033388348   -0.0010834630   -0.0015863708
H    4.6353712555    0.4622865479    0.3714298924    0.0000899886   -0.0005234766   -0.0003327008
C    3.4282009063    1.8384994524    1.1037689878   -0.0003342434    0.0016403639    0.0007075676
H    4.0594733580    1.9330472833    2.0266668731    0.0000426803   -0.0002509397   -0.0000858749
H    2.4527202654    2.0737491236    1.3470584606    0.0001974607   -0.0000282821    0.0000910171
H    3.8804440849    2.6634117772    0.3940078377    0.0000313675   -0.0002164869    0.0000791900
18
energy=-0.0023637715 Properties=species:S:1:pos:R:3:forces:R:3 pbc="T T T" Lattice="200.000 0.000 0.000 0.000 200.000 0.000 0.000 0.000 200.000"
O    2.3328611946    3.2443344836    1.2464761512    0.0018995312    0.0035830896    0.0001054152
H    2.0863567797    2.3277499597    0.9702838435   -0.0044022432   -0.0043194536   -0.0009595358
C    1.8507210926    4.3367389406    0.4147311307    0.0005605005   -0.0012711535    0.0007744163
H    2.6490600667    5.0675263420    0.5089723857    0.0002895062    0.0004442867    0.0000606780
H    0.8847763903    4.8924220032    0.5644959475   -0.0000987304    0.0000138840   -0.0002524823
H    1.7411126294    4.0671655387   -0.6259356594   -0.0003239590    0.0000118271    0.0003033902
O    0.6807338253    0.8555237926    0.4661125495    0.0022543434    0.0016033401    0.0003964641
H    0.4919503458   -0.0379298538    0.7655246984    0.0001861479   -0.0001347258    0.0000318817
C   -0.4752482048    1.1199223721   -0.3073628520   -0.0008865164    0.0003938930   -0.0007034539
H   -1.4586206480    1.1514998157    0.2025677423    0.0001090148   -0.0002740796   -0.0000545074
H   -0.3888326149    0.4973607764   -1.2654049414   -0.0002812787   -0.0007368782   -0.0003985210
H   -0.2760038581    2.0958722732   -0.6235487035    0.0001552946   -0.0002925916    0.0001295836
O   -1.6568954947   -4.3021473663   -0.9845993377    0.0026322956    0.0045827346    0.0017133833
H   -0.8984718919   -4.6635454158   -0.4742464257    0.0002164869   -0.0020980203   -0.0008422935
C   -2.7808242172   -5.1381256698   -0.8550319758   -0.0033290646   -0.0021484140   -0.0003224164
H   -3.6288475108   -4.8725385234   -0.1642832166    0.0002668805    0.0000365097   -0.0000215973
H   -2.6536994830   -6.1872682215   -0.7751002129    0.0004211467    0.0008170966   -0.0000750762
H   -3.3393908969   -4.9227888527   -1.7305529168    0.0003301297   -0.0002098020    0.0001151854
18
energy=-0.0023230088 Properties=species:S:1:pos:R:3:forces:R:3 pbc="T T T" Lattice="200.000 0.000 0.000 0.000 200.000 0.000 0.000 0.000 200.000"
O   -2.0670277001   -1.0050865609   -0.6553853903   -0.0003614971   -0.0061079131    0.0006803139
H   -1.7084990356   -0.1758408205   -0.9041171589    0.0019725505    0.0078686047   -0.0016671034
C   -2.0220812468   -1.9876441780   -1.7023183119   -0.0004386302    0.0012624117    0.0009687917
H   -2.5554350991   -2.8096899009   -1.3450331118    0.0000241684   -0.0003260159    0.0000509078
H   -0.8782072138   -2.2794517779   -1.9289415206    0.0007142525   -0.0004463435   -0.0004612559
H   -2.5631436569   -1.6231542055   -2.5666548284    0.0002540250    0.0000920455   -0.0000185119
O   -1.0654694293    1.6104854958   -0.9240729291   -0.0026919452   -0.0024842001    0.0000035995
H   -0.2403319601    2.0138967174   -1.0949072093    0.0008710898   -0.0008505210   -0.0001516951
C   -1.7839941729    2.1381702952    0.2041473474   -0.0005630716   -0.0000714767   -0.0002817929
H   -2.4458187860    1.2946865130    0.5101162560    0.0004309169    0.0011636814    0.0004324596
H   -2.3943779461    2.9961746569   -0.0459198800    0.0000750762    0.0000617065    0.0002385984
H   -1.1050961861    2.3617384906    1.0311538616    0.0004190898    0.0001439818    0.0005841547
O    3.4927440121   -0.1891713762    2.1893499714   -0.0009878179    0.0027886187    0.0015884277
H    3.4198011312   -0.9059097481    2.7523038375    0.0000601638   -0.0008618338   -0.0001948896
C    3.3649839323   -0.6055718597    0.8628883536   -0.0009482229   -0.0034838450   -0.0008186393
H    4.2314509128   -1.1650470915    0.4931338981   -0.0008453788    0.0009004004   -0.0002442548
H    3.2617328811    0.3222684505    0.2392332987    0.0012716677    0.0009873037   -0.0007847007
H    2.5152837100   -1.2147005038    0.7480029400    0.0007440773   -0.0006371194    0.0000771331
18
energy=-0.0021861355 Properties=species:S:1:pos:R:3:forces:R:3 pbc="T T T" Lattice="200.000 0.000 0.000 0.000 200.000 0.000 0.000 0.000 200.000"
O    0.4761528934   -2.1774084171   -1.7828432798    0.0046495833   -0.0001871763   -0.0031526869
H    0.0151286412   -1.8369021874   -1.0454084414   -0.0071960041   -0.0011991626    0.0039373877
C    0.8912506870   -3.5415595853   -1.6443620028   -0.0003661251   -0.0002663663    0.0003548123
H    1.9308357160   -3.4719576961   -2.0367788966    0.0001516951    0.0000673629   -0.0003213879
H    0.1368311853   -4.1945048269   -2.1509014699   -0.0002684232   -0.0001702070    0.0000611923
H    0.7128479780   -3.9270891578   -0.6344119978   -0.0004705119    0.0001990034   -0.0001650648
O   -1.2306782127   -1.7561974877    0.3160655105    0.0021905801    0.0003470990   -0.0026554355
H   -2.1468755000   -1.6453787569    0.0408346354    0.0011246006   -0.0005013652    0.0000781615
C   -1.0563619653   -0.9706241999    1.4107368027   -0.0003404141    0.0003167599    0.0018136563
H   -1.6038774967   -1.2773631354    2.3081395164    0.0006072946    0.0001450102   -0.0010927189
H   -1.3101761677    0.0242042351    1.1973054611    0.0008597770    0.0014382752    0.0000894744
H    0.0371915724   -0.9840335826    1.5338710078    0.0005363322    0.0007646461    0.0005059931
O    0.9332823002    3.7624384150    1.1880331624   -0.0024050101   -0.0032246778    0.0031465163
H    1.3451954068    4.3411711053    1.9215813570    0.0013786256    0.0004669124   -0.0006088373
C    0.0525481799    4.6119460335    0.4557361731    0.0005003367    0.0027207416   -0.0019437541
H   -0.3803881116    5.4371335943    1.0364144742    0.0000987304   -0.0001254698    0.0001126143
H   -0.8045231304    4.0495143883    0.0616068616   -0.0003784664    0.0003527554   -0.0010716359
H    0.5714409272    5.0136322653   -0.4540145074   -0.0006741433   -0.0011436268    0.0009127417
18
energy=-0.0021643936 Properties=species:S:1:pos:R:3:forces:R:3 pbc="T T T" Lattice="200.000 0.000 0.000 0.000 200.000 0.000 0.000 0.000 200.000"
O   -0.4695769753    2.9061090792   -3.6256286851    0.0006844277    0.0025335652    0.0004591991
H    0.0425979701    1.9812342329   -3.5345174213    0.0001110717   -0.0021612695    0.0013832536
C    0.2918774650    3.8810204377   -3.0103994891   -0.0005851831   -0.0020332285   -0.0015092377
H    0.1973956234    4.7920902566   -3.5937607700   -0.0000298248    0.0005533014   -0.0000591354
H    1.3654132581    3.4967944893   -2.9533588115   -0.0002020887   -0.0002041456    0.0002170011
H   -0.0324965802    4.0258363775   -1.9936872218   -0.0000349670    0.0001079863    0.0004370876
O   -0.1651073348   -2.1443879889    3.0583716687    0.0019910624   -0.0013873674   -0.0047436857
H    0.1300807422   -3.0655843297    2.9724319494   -0.0003445278   -0.0006273492    0.0014907257
C   -0.8487366338   -1.8700456913    4.2530816109   -0.0015647735    0.0012449282    0.0019062160
H   -1.8824234866   -2.1940648523    3.8728614444    0.0003578976   -0.0000118271    0.0000215973
H   -0.8057151307   -0.8554594567    4.6193858668    0.0000941024   -0.0001630080   -0.0002103163
H   -0.4302130812   -2.4572669630    5.0298467921    0.0002252287    0.0000215973   -0.0006340341
O    0.0569149982   -1.0420261427   -0.6629482223   -0.0001460387    0.0010227849   -0.0012639544
H   -0.5767152900   -0.6929700278   -0.0332006947   -0.0000354812   -0.0001676359    0.0007229943
C    1.1346027135   -1.6099249673   -0.0172430724    0.0011323139    0.0004545711   -0.0014835266
H    1.5280517080   -2.4656665069   -0.5179719551   -0.0002365415    0.0002571103   -0.0000035995
H    0.8055422979   -1.9726410375    0.9207877440   -0.0013667985    0.0003836086    0.0031809691
H    1.9458288479   -0.9215592904    0.1376175437   -0.0000483367    0.0001768919    0.0000899886
18
energy=-0.0020675755 Properties=species:S:1:pos:R:3:forces:R:3 pbc="T T T" Lattice="200.000 0.000 0.000 0.000 200.000 0.000 0.000 0.000 200.000"
O    1.6911411793   -3.8006581956   -0.0044309012    0.0010896336   -0.0001249556    0.0020944208
H    0.9180237762   -3.4873628614   -0.5638980686   -0.0016897291    0.0021432718   -0.0012084186
C    1.5853180914   -3.0734661009    1.1714610972    0.0001897474   -0.0018352536   -0.0020702524
H    1.2225747733   -2.1408058724    0.9275861064   -0.0008962866    0.0005548441   -0.0008160682
H    2.5728918661   -2.8809608348    1.7044756922    0.0003980068    0.0001599226    0.0004376018
H    1.0616268768   -3.7319922390    1.9124730796   -0.0002380842   -0.0000010284    0.0003887508
O   -0.1461847824   -1.4605408455   -0.9236147105    0.0014105073   -0.0025520772    0.0019710078
H    0.0964222518   -0.4714463691   -0.9018959583    0.0001182708    0.0024924276   -0.0000966735
C   -0.9854482719   -1.2788821237   -2.1007419694   -0.0010772923   -0.0002596814   -0.0012315585
H   -0.5039836798   -0.6848802171   -2.8819654973    0.0001393538   -0.0000133697    0.0005584436
H   -1.9671565592   -0.7618940223   -2.0075271984    0.0005404459    0.0000375381    0.0004340022
H   -1.1783097504   -2.2983420515   -2.3844045312    0.0003126462    0.0002149442    0.0003291012
O   -0.4981732132    4.3925027621    1.0220068944   -0.0004797679   -0.0009903890   -0.0016722456
H    0.2249542870    4.9157624385    1.5444508413    0.0005270762   -0.0004967372    0.0004951945
C   -1.7088963947    5.1449371976    0.8304415065   -0.0002283140    0.0003810375    0.0007440773
H   -1.9646210245    4.9912235460   -0.1705630922   -0.0000992446    0.0005666712   -0.0003172742
H   -1.5172443478    6.1972827644    0.9817484261   -0.0001604368   -0.0005039363   -0.0001650648
H   -2.3670577377    4.6989678893    1.5257123195    0.0001434676    0.0002272855    0.0001234130
18
energy=-0.0020229489 Properties=species:S:1:pos:R:3:forces:R:3 pbc="T T T" Lattice="200.000 0.000 0.000 0.000 200.000 0.000 0.000 0.000 200.000"
O   -1.1827414379    1.0467618232   -0.7631316669    0.0001110717   -0.0040381749    0.0009286825
H   -1.0857012564    2.0651978615   -0.8601363285   -0.0002843640    0.0060204956   -0.0016763594
C    0.0659444313    0.4213916656   -1.1161726409   -0.0000632491    0.0008001274   -0.0003188168
H   -0.0436477845   -0.4805061584   -0.6918801277   -0.0002010603   -0.0010227849    0.0003496701
H    0.7962066628    1.0766678046   -0.5886663961   -0.0002812787   -0.0000637634   -0.0001259841
H    0.3559230150    0.3696808101   -2.2140934247    0.0000092560   -0.0001748350    0.0000622207
O   -1.2049449552    3.8789731636   -1.3444031610    0.0009914175   -0.0027937609    0.0016578474
H   -1.2370659489    4.4084585828   -0.6215132617   -0.0000359954    0.0001810057    0.0003255017
C   -1.7992537909    4.2709282564   -2.5434093221   -0.0006659158    0.0000164551   -0.0014824982
H   -1.3212890894    5.2044650195   -2.8533854523    0.0000905028   -0.0001141570    0.0002905347
H   -2.8271474753    4.3944275807   -2.4079355465    0.0002195722   -0.0000447372    0.0001645506
H   -1.5978295451    3.4906230442   -3.2540863940   -0.0000524505    0.0001964323    0.0000663345
O    1.8315326273   -4.2780038208    3.0735681694    0.0010089010   -0.0053854331    0.0013801683
H    1.0451003293   -4.0132711156    2.4798662366    0.0004936518    0.0032344480   -0.0021324731
C    2.3527106330   -5.4718255547    2.6501880956   -0.0010598088    0.0046819792    0.0001789488
H    2.5600486113   -5.5230985798    1.5987613049   -0.0002910489    0.0000416519    0.0000226257
H    1.6203712859   -6.3436959202    2.8144418609   -0.0004972514   -0.0011276859    0.0000051422
H    3.1828396284   -5.6426776056    3.2913765562    0.0005075358   -0.0004067486    0.0003054471
18
energy=-0.0019333418 Properties=species:S:1:pos:R:3:forces:R:3 pbc="T T T" Lattice="200.000 0.000 0.000 0.000 200.000 0.000 0.000 0.000 200.000"
O    2.5756231444   -1.1034095809    4.7225571914   -0.0016727598    0.0016336791   -0.0015781432
H    2.1921201643   -0.6647635437    5.4925083240    0.0000617065   -0.0002200864    0.0005301615
C    3.6060524238   -1.9101693647    5.2301638151    0.0017390943   -0.0014907257    0.0009194266
H    3.2442760604   -2.6887022058    5.8626034874   -0.0000894744    0.0004715404   -0.0003784664
H    4.3434250813   -1.3401194558    5.6761310801   -0.0004190898   -0.0000082275   -0.0002170011
H    4.1108828355   -2.4727541670    4.4716346620    0.0000452514   -0.0000817611    0.0000694198
O   -2.5527038416    0.0612872636   -3.6624416079   -0.0018985027   -0.0004627986   -0.0016228804
H   -2.0221496151    0.6102060261   -2.9677606438    0.0029716813    0.0015051239    0.0020692240
C   -3.3891115323    0.8815259500   -4.4854913026    0.0008474357   -0.0006489465    0.0008664618
H   -3.8784242821    1.6905190852   -3.9294457922   -0.0000005142    0.0001357543   -0.0000138840
H   -4.2226810118    0.1358884222   -4.7445711413   -0.0003116177   -0.0001131285   -0.0001969465
H   -2.8343362771    1.1673353771   -5.3899150657   -0.0000056564    0.0001588942   -0.0001974607
O   -0.2395980478    1.4119665455   -1.4793085395   -0.0013811967   -0.0001408965   -0.0011199726
H    0.6055936800    1.8285472430   -1.7625333716   -0.0002242002   -0.0000092560   -0.0003347577
C   -0.0482434362    0.5955422275   -0.3910757376   -0.0003568691   -0.0006797997    0.0005363322
H    0.2688606651   -0.4008106531   -0.7500293778    0.0001568373   -0.0000390808    0.0002113447
H   -1.0205892736    0.4584431299    0.1788810587    0.0001732924    0.0000200546    0.0001023299
H    0.6424758385    0.9660018958    0.3034842894    0.0003640682   -0.0000308532    0.0003573834
18
energy=-0.0018592180 Properties=species:S:1:pos:R:3:forces:R:3 pbc="T T T" Lattice="200.000 0.000 0.000 0.000 200.000 0.000 0.000 0.000 200.000"
O    0.7342198660   -3.9193679897    0.5541215558    0.0011425983   -0.0000838180   -0.0002118589
H    0.0926935605   -3.3046373099    0.8717322277   -0.0014264481    0.0010104436    0.0000658202
C    0.1116641666   -4.3955947701   -0.6722391815   -0.0005728418   -0.0001280409    0.0002781934
H   -0.9253574050   -4.4109246164   -0.4587083398    0.0002720227    0.0005558725   -0.0001151854
H    0.4964350248   -5.3514093787   -0.9754378746    0.0002514539   -0.0002509397    0.0000215973
H    0.5207259182   -3.7622491150   -1.4504764620   -0.0002252287    0.0000365097   -0.0000195404
O    0.9360060601    3.6465516845   -0.4603262040   -0.0027994173   -0.0004720546    0.0013364595
H    0.6802347401    4.3669588555   -0.9129814336    0.0002493970    0.0003995495    0.0000411377
C    1.7138089976    2.9319740189   -1.3956260175    0.0014156495   -0.0013482866   -0.0013467439
H    1.1080844033    2.8976252817   -2.2711349274    0.0001429533    0.0000910171    0.0002046598
H    1.8353811442    1.9675951279   -0.9012097994    0.0003404141    0.0000298248   -0.0002617383