18
energy=-0.0031383164 Properties=species:S:1:pos:R:3:forces:R:3 pbc="T T T" Lattice="200.000 0.000 0.000 0.000 200.000 0.000 0.000 0.000 200.000"
O   -2.0674041643   -1.0037148850   -0.6489467232   -0.0007065392   -0.0073271303    0.0010125005
H   -1.7005653114   -0.1098213873   -0.9038888988    0.0031547438    0.0103934282   -0.0020584253
C   -1.9984914750   -1.9977241398   -1.6925795671   -0.0003337292    0.0012634402    0.0008376655
H   -2.5705354889   -2.8573959094   -1.3065249270    0.0000061706   -0.0003897793    0.0000905028
H   -0.9135116864   -2.2739328361   -1.8962820702    0.0007584755   -0.0004679408   -0.0004674266
H   -2.4356898518   -1.6439519324   -2.6315778979    0.0002401411    0.0000689056    0.0000611923
O   -1.0730950422    1.6126657141   -0.9349824366   -0.0034226528   -0.0036514810    0.0000143982
H   -0.2642833460    1.9642142965   -1.0988546269    0.0009682775   -0.0011055744   -0.0001121001
C   -1.7773771430    2.1323475420    0.2076586862   -0.0007044823    0.0000313675   -0.0001383254
H   -2.4488125299    1.3267673086    0.4896812777    0.0004370876    0.0011533970    0.0004453151
H   -2.4168787807    2.9464878353   -0.0360810966    0.0001141570    0.0000622207    0.0002272855
H   -1.1116704390    2.3945783715    1.0165989142    0.0005491877    0.0001825483    0.0006921410
O    3.4899861757   -0.1728256657    2.1869722890   -0.0010330693    0.0032889554    0.0015647735
H    3.4268283781   -0.9966221446    2.7387763954   -0.0001640364   -0.0008788031   -0.0002709943
C    3.3491853884   -0.6043526708    0.8576603657   -0.0011569965   -0.0044644639   -0.0005610148
H    4.1947595860   -1.1656954868    0.4867684607   -0.0010412969    0.0011081455   -0.0003815517
H    3.2412911691    0.3270104564    0.2801188977    0.0016449919    0.0012094470   -0.0008649192
H    2.5355447344   -1.2375622792    0.7627606194    0.0006900841   -0.0004766826   -0.0000915313
18
energy=-0.0030234843 Properties=species:S:1:pos:R:3:forces:R:3 pbc="T T T" Lattice="200.000 0.000 0.000 0.000 200.000 0.000 0.000 0.000 200.000"
O   -0.7044822266    3.4657141722   -0.5785454361   -0.0023998679    0.0063588528    0.0011703662
H   -0.4125276953    2.5929757092   -0.4561882172    0.0051103250   -0.0083509437   -0.0016876722
C    0.1950712935    4.2879213343    0.0562384220   -0.0009369101   -0.0015519180   -0.0008906302
H    0.7491948133    4.9923089957   -0.5163789014    0.0003512127    0.0002684232    0.0000421661
H    1.0254749458    3.7329703668    0.6272798128    0.0000431945   -0.0000118271   -0.0004699977
H   -0.3689078732    4.8713961433    0.7667895892   -0.0001918043    0.0005635859    0.0002730512
O   -0.1870958617   -4.2739421505    1.2674680857    0.0047971646    0.0045025162   -0.0029783661
H    0.3870752524   -5.0440502248    1.1850207902   -0.0005651285   -0.0018424527    0.0020028895
C   -1.2775379894   -4.4575671686    0.4179852808   -0.0038093467   -0.0011564823    0.0009543936
H   -0.9495795601   -4.2274277846   -0.6245325556   -0.0002349988   -0.0011955631   -0.0012223025
H   -2.0965363245   -3.7978673906    0.7469109854   -0.0002216291   -0.0005167918    0.0001681502
H   -1.5802731127   -5.4527583011    0.5089602560    0.0005358179    0.0012917223   -0.0006021524
O    0.3444050329    0.8340725037   -0.3897516512   -0.0019864344    0.0039127051    0.0009081137
H    0.0925419146    0.5493792695    0.5021644495   -0.0003784664   -0.0015498611    0.0012562411
C    1.5924563980    0.2665985382   -0.8530184572    0.0011389988    0.0010675221   -0.0010284413
H    1.6076112138   -0.8161877569   -0.6814693574   -0.0003990352   -0.0012670397    0.0010567235
H    2.4855330107    0.7274169436   -0.3861369933   -0.0005718134   -0.0003368145    0.0001316405
H    1.6694045719    0.3062676190   -1.9078464105   -0.0002817929   -0.0001856337    0.0009158270
18
energy=-0.0023292130 Properties=species:S:1:pos:R:3:forces:R:3 pbc="T T T" Lattice="200.000 0.000 0.000 0.000 200.000 0.000 0.000 0.000 200.000"
O    2.6930656235    0.7492741982    2.2376499358   -0.0010022161   -0.0036319406    0.0002257429
H    2.4355167147    0.8352393013    3.1344585504    0.0009353674    0.0008350944    0.0005183344
C    2.0161267253    1.8134339046    1.5714062648    0.0005584436    0.0010844914   -0.0006803139
H    2.1815387715    1.8066346994    0.4830612199    0.0000390808    0.0012541842   -0.0011040318
H    2.0197533973    2.7490957377    2.0196971475   -0.0008628623   -0.0006067804   -0.0006633447
H    0.9896252599    1.5850716953    1.7213492769   -0.0009250830    0.0019380977    0.0009204550
O   -1.2302678351   -1.4745987268    0.1769427329    0.0003676678    0.0000329101   -0.0020291148
H   -1.8390056536   -0.8753053975    0.6416211334    0.0003671536    0.0004463435    0.0006237497
C   -1.5434650051   -2.7870052999    0.5854199731   -0.0004293743   -0.0007147667   -0.0001455244
H   -1.6265498825   -2.9457597905    1.6699795506    0.0002751081    0.0004463435   -0.0003980068
H   -0.8919804625   -3.6436682986    0.1930180868    0.0002185438   -0.0001331832    0.0000776473
H   -2.4622891397   -3.0823287169    0.1087312225   -0.0001419249   -0.0001609511    0.0000699340
O   -0.4292718841    1.3532194108   -2.4321675921    0.0011960773   -0.0000879317    0.0002761365
H   -1.0528419230    2.1705476627   -2.3546743834    0.0000570785    0.0002380842    0.0005553583
C   -1.4298910234    0.2531461049   -2.2313851354   -0.0024430624    0.0013421159   -0.0002571103
H   -1.9251886025   -0.0270460887   -3.1080771245    0.0005646143   -0.0004473720    0.0001810057
H   -2.0764166462    0.5893507011   -1.4023000518    0.0004550853    0.0004478862    0.0002792218
H   -0.7524306332   -0.5446794658   -1.9394131860    0.0007692741   -0.0022846824    0.0015493469
18
energy=-0.0021957139 Properties=species:S:1:pos:R:3:forces:R:3 pbc="T T T" Lattice="200.000 0.000 0.000 0.000 200.000 0.000 0.000 0.000 200.000"
O   -0.3041698160   -3.7760611916    2.7541477616    0.0001815199    0.0021221887   -0.0004807963
H   -1.1085826268   -3.9870340069    2.2422576063   -0.0005111353   -0.0004458293   -0.0004278316
C    0.3716186287   -4.7752903073    3.4087520178    0.0002478544   -0.0013714265    0.0006998543
H    0.0676262747   -5.7871409184    3.0325633349    0.0001563231    0.0007543617    0.0001717497
H    0.2002035120   -4.8381664932    4.5178242792   -0.0000941024   -0.0000071991   -0.0001522093
H    1.4027512672   -4.8300995069    3.3140820828    0.0002041456   -0.0002802503   -0.0001352400
O   -1.2111658812    1.5966138489   -2.4880567013   -0.0023263343   -0.0013678270   -0.0022558861
H   -0.6249145877    1.7629469398   -1.6788166007    0.0048002500    0.0018835903    0.0026898883
C   -0.5863742316    2.4161574630   -3.5075716897    0.0003558407    0.0001979750    0.0000503936
H   -0.6006637877    3.4422377449   -3.2177451568    0.0001136428   -0.0002103163    0.0001681502
H   -1.1723848677    2.2201332454   -4.3705206218   -0.0002704801   -0.0001578657   -0.0001038726
H    0.4318234708    2.1091091650   -3.6549907797   -0.0001095290    0.0001085006    0.0002313993
O    1.1020785399    1.9286267970   -0.6882273941   -0.0020393992   -0.0008078407   -0.0009862752
H    1.9328391518    2.2756214216   -0.8868158700   -0.0002961911   -0.0001522093   -0.0005707849
C    0.5945637042    2.6229346043    0.5141407948   -0.0006432901    0.0008705756    0.0006839135
H   -0.4797054301    2.3706716197    0.7538811100    0.0000205688   -0.0002277998    0.0002349988
H    0.6409049149    3.7354172343    0.3240064117    0.0000987304   -0.0004648555   -0.0000807326
H    1.3445231356    2.3644641926    1.3764683135    0.0001095290   -0.0004406871    0.0002643094
18
energy=-0.0022057550 Properties=species:S:1:pos:R:3:forces:R:3 pbc="T T T" Lattice="200.000 0.000 0.000 0.000 200.000 0.000 0.000 0.000 200.000"
O   -0.5746374272   -2.9586344890   -2.2925666131   -0.0010119863    0.0028030169    0.0011544254
H   -0.3579241794   -2.4495777402   -3.0883181390   -0.0003604687    0.0001691786   -0.0010351262
C    0.1596155994   -4.0696232817   -2.1891918615    0.0017411512   -0.0027562228    0.0000272537
H    1.1815692654   -4.0750183386   -2.5790739313   -0.0003105893    0.0001331832    0.0000390808
H   -0.2675417008   -4.9049045729   -2.8065702390   -0.0000570785    0.0007918998    0.0003573834
H    0.2369627290   -4.4890622881   -1.1155418054   -0.0000118271   -0.0002787076   -0.0000298248
O   -0.2346421662   -0.0501613165    0.8149503051    0.0006021524    0.0022353173    0.0009477087
H   -0.4508026128   -0.3005198976   -0.0544705465   -0.0002997907   -0.0022373741   -0.0014346757
C   -1.3975496689    0.2699201880    1.6245877311   -0.0000678771   -0.0000133697   -0.0004067486
H   -0.9706177649    1.0789866403    2.2318350405    0.0002108305    0.0000817611    0.0004874812
H   -1.7535223844   -0.6630067311    2.1150832544    0.0002663663   -0.0000293106   -0.0002159727
H   -2.1324356052    0.8503158717    1.1624852831   -0.0000863891   -0.0001933470   -0.0002036314
O    1.4949463735    3.5583315080    1.5657138890    0.0019720363    0.0011348850    0.0003913219
H    1.6277934628    2.8518102787    2.2046199123   -0.0017982297   -0.0007744163   -0.0005368464
C    0.5180342772    3.2776792123    0.5486932566   -0.0016583617    0.0003553265   -0.0004221752
H   -0.5657057653    3.2128033998    0.8886513338    0.0014660431   -0.0008587485   -0.0000128555
H    0.6563264727    2.3313919760    0.1063113028   -0.0011950488   -0.0016732741    0.0014223344
H    0.4896839622    4.0536656457   -0.2739261873    0.0005995813    0.0011096882   -0.0005281046
18
energy=-0.0019996559 Properties=species:S:1:pos:R:3:forces:R:3 pbc="T T T" Lattice="200.000 0.000 0.000 0.000 200.000 0.000 0.000 0.000 200.000"
O   -2.2725137956    1.2545595782    3.6369411967   -0.0053782340    0.0002967053    0.0003491558
H   -1.7364164384    0.9040605470    2.9283281384    0.0045328552   -0.0002180296   -0.0014706711
C   -3.6676855262    1.2073848040    3.3335006271    0.0044526368    0.0000277679    0.0006936837
H   -4.1750612175    2.1900999171    3.2629887074   -0.0006777428    0.0003573834   -0.0000622207
H   -4.3482817670    0.6901371449    4.1277106010   -0.0007841865   -0.0001882048    0.0002401411
H   -3.8107446318    0.6643152950    2.4435379751   -0.0001630080   -0.0001784346   -0.0002612241
O    1.7121090726   -0.6953573183   -3.4390656327    0.0016969282    0.0009291968    0.0031547438
H    2.4206266853   -0.2405560512   -3.8991384140   -0.0002715085    0.0003316723   -0.0008042411
C    1.3383151398   -1.8080659889   -4.2655597678   -0.0012608691   -0.0018666210   -0.0010757496
H    1.8517575102   -1.9450378449   -5.2121291436    0.0001270125    0.0003141888    0.0003486416
H    0.3090053681   -1.6658094029   -4.3465602285    0.0002303709    0.0001532378    0.0001465529
H    1.7294727761   -2.8017435251   -3.8332598745    0.0000061706    0.0000997588   -0.0001378111
O    1.0427288018    0.5149269708    0.6890744335   -0.0019231853    0.0010222707    0.0013333742
H    0.9988079522    1.2691280146    0.0109303206   -0.0002591672   -0.0001352400   -0.0001552946
C    1.7527938355   -0.5285115513    0.1316716933    0.0007641319   -0.0013174334    0.0007101387
H    1.4275279119   -0.9029155983   -0.8786880372    0.0001666075   -0.0002221433   -0.0026451511
H    1.7458183528   -1.4359138190    0.7121664471   -0.0002509397    0.0003327008   -0.0003383572
H    2.8013868664   -0.3214472275    0.1417193474   -0.0010094152    0.0002617383   -0.0000246826
18
energy=-0.0017237597 Properties=species:S:1:pos:R:3:forces:R:3 pbc="T T T" Lattice="200.000 0.000 0.000 0.000 200.000 0.000 0.000 0.000 200.000"
O   -1.5936919541   -2.4049369713    2.2277194366   -0.0021412149    0.0007317360   -0.0012845232
H   -2.2440774871   -2.8119937905    2.8211827460    0.0003388714   -0.0003800091   -0.0004149761
C   -0.6905208686   -1.6891928293    3.1371590869    0.0015370056    0.0002915631    0.0001290694
H   -0.4113190343   -2.3432898786    3.9226875058    0.0004206325    0.0002401411   -0.0005764414
H   -1.0155170972   -0.6294635813    3.4268648378   -0.0004854243    0.0002046598    0.0005985529
H    0.2303215661   -1.6049515509    2.5522868876    0.0014305619   -0.0000889602    0.0009873037
O   -0.4083517436    1.6924996406   -1.8227240807    0.0010546666   -0.0011832218   -0.0009559362
H    0.5363706759    2.0717565890   -1.9993039086   -0.0001182708   -0.0003172742    0.0009106848
C   -1.4354408455    2.6995814742   -2.1572013375   -0.0008700614    0.0003584118    0.0000313675
H   -1.0446184093    3.6967968964   -2.0228016480    0.0001702070   -0.0003321866    0.0000694198
H   -2.2661020178    2.5621597551   -1.3907549938   -0.0000431945    0.0001049010    0.0001383254
H   -1.8437460914    2.3655904208   -3.1611324995    0.0000010284    0.0000416519   -0.0000560501
O    2.5756842903    0.3516066308   -0.8498310104   -0.0013405733   -0.0007384209    0.0004478862
H    3.3393443968    0.1516534709   -0.2711774917    0.0005445597   -0.0001141570    0.0001840910
C    1.4389884279   -0.6219742936   -0.5683484764    0.0009698202    0.0002792218   -0.0002380842
H    1.2932267042   -0.5859668553    0.5657099390   -0.0009199408   -0.0003836086    0.0002062025
H    1.7163085199   -1.6018406471   -1.0044423670    0.0000143982    0.0003080182    0.0003183026
H    0.7896040025   -0.1708316442   -1.2823518065   -0.0005646143    0.0009770193   -0.0004936518
18
energy=-0.0017051471 Properties=species:S:1:pos:R:3:forces:R:3 pbc="T T T" Lattice="200.000 0.000 0.000 0.000 200.000 0.000 0.000 0.000 200.000"
O   -0.0116739969    0.1894398739    1.5776037695    0.0013868531   -0.0004160045    0.0019211284
H   -0.7970312384    0.7301214181    1.3930687964   -0.0007250511    0.0004329738   -0.0014645005
C   -0.2699933352   -1.1557053747    1.1585326808   -0.0006813424    0.0001830626   -0.0017576063
H   -1.0696481290   -1.3010303166    0.4355679768    0.0008561774    0.0012984072   -0.0001131285
H   -0.4839075900   -1.7586009581    2.1005166154    0.0003938930   -0.0000215973    0.0008237815
H    0.6413445495   -1.4647675550    0.6201471355   -0.0004741115   -0.0007949852    0.0005183344
O    3.3490646596    0.5012063765    0.4598570366    0.0011513401    0.0019797496   -0.0002735654
H    2.4637427449    0.8189573970    0.5255148355   -0.0017416654   -0.0018486233    0.0006880273
C    3.3821666095   -0.7934842190   -0.0785583731    0.0002607099   -0.0019555812    0.0005183344
H    2.9103496177   -0.8228883668   -1.0982199858   -0.0004936518   -0.0002637952    0.0003116177
H    2.9106575408   -1.6083814173    0.5068258226   -0.0007445915    0.0010906620   -0.0008690329
H    4.3602805228   -1.0110304672   -0.2809218799    0.0006340341    0.0006139795   -0.0001974607
O   -3.7344421028    0.7920956938   -1.1893336695   -0.0011564823   -0.0001460387    0.0016028258
H   -4.3542474845    1.0553349131   -1.7982809088   -0.0003944073    0.0001933470    0.0000992446
C   -2.5614695479    0.3639630297   -1.8925633692    0.0011883640    0.0011179157   -0.0016979567
H   -1.8361981759    1.1870786060   -1.9554777988   -0.0000323959   -0.0010032445    0.0001198134
H   -2.7584153194    0.0385082745   -2.9191620869    0.0001738066   -0.0004386302    0.0005635859
H   -2.2461880036   -0.5113566812   -1.3102797334    0.0004000637   -0.0000200546   -0.0007924141
18
energy=-0.0016327920 Properties=species:S:1:pos:R:3:forces:R:3 pbc="T T T" Lattice="200.000 0.000 0.000 0.000 200.000 0.000 0.000 0.000 200.000"
O    0.5201012637   -3.2149095984   -4.1056225755   -0.0006628304   -0.0012891512    0.0016629896
H    1.5216307953   -3.4411820207   -4.1952248071    0.0002031172    0.0002632810   -0.0003008191
C    0.6403793280   -2.0445217473   -4.9401193993    0.0004278316    0.0014413605   -0.0012438998
H    1.6755655611   -1.6810806790   -4.9704625698   -0.0004108623   -0.0000555358    0.0002488828
H   -0.0944946728   -1.2994965811   -4.6487995122    0.0002535108    0.0000709625   -0.0001264983
H    0.2392606754   -2.2056194216   -5.8206254959    0.0000313675   -0.0001964323    0.0003373288
O    0.3961751589    2.2296823684    1.3928014106    0.0015483184    0.0013210329   -0.0014691285
H   -0.2394496946    1.7672798228    1.8580042625   -0.0020656244   -0.0017216108    0.0030565277
C    1.1056768854    3.1027221611    2.2421541630   -0.0005409601   -0.0003743526   -0.0000277679
H    0.6547344898    4.1282915804    2.1561357009   -0.0000149124    0.0002586530   -0.0000107986
H    2.2332515695    3.0575497233    1.9960527639    0.0003820660    0.0000642776   -0.0001126143
H    0.8360958020    2.7524587123    3.2139141188   -0.0001923185   -0.0001959181   -0.0001419249
O   -1.4106405142    0.5872808163    3.0578852680    0.0012176745    0.0017581205   -0.0009353674
H   -0.7587614832    0.4877423753    3.8448976304   -0.0000226257    0.0000735336    0.0002725370
C   -1.2939383020   -0.6124164169    2.2810166220   -0.0000221115   -0.0008258384   -0.0004514857
H   -0.2443390519   -0.8475475683    2.0858330316    0.0000385666   -0.0003203595   -0.0000992446
H   -1.5986132086   -0.2832368137    1.2260259993   -0.0001882048   -0.0002879636   -0.0005610148
H   -1.7645788861   -1.4299706842    2.7449370251    0.0000149124    0.0000143982   -0.0000961593
18
energy=-0.0016124923 Properties=species:S:1:pos:R:3:forces:R:3 pbc="T T T" Lattice="200.000 0.000 0.000 0.000 200.000 0.000 0.000 0.000 200.000"
O   -1.2807439924    0.1180330314    2.4744964270    0.0033609463    0.0012058475    0.0019617519
H   -1.8950427321   -0.1430871974    1.7653759925   -0.0042659747   -0.0028852922   -0.0033280362
C   -0.2869409839   -0.8663724936    2.6956391287   -0.0007461342    0.0000997588   -0.0001100432
H   -0.4758684113   -1.6621373370    3.4511698782    0.0001177565   -0.0001342116    0.0000215973
H    0.6087481567   -0.2532657014    2.9567000072    0.0004890239    0.0003162457    0.0001856337
H   -0.2088456946   -1.5257440757    1.8071011243   -0.0000817611   -0.0001002730   -0.0000704482
O   -2.9324810927   -0.9904001185    0.7264912333    0.0020126597    0.0015781432    0.0017046415
H   -2.9918251176   -0.9068624712   -0.2160917568    0.0003152173    0.0000848464   -0.0007764732
C   -4.2097678862   -0.7148536714    1.4434030650   -0.0010392400    0.0001676359    0.0008536063
H   -4.8024581693    0.2357628233    1.1726651524    0.0002000318   -0.0001439818   -0.0001321547
H   -3.9793677072   -0.6483711968    2.4548651712   -0.0001460387   -0.0001249556   -0.0003779522
H   -4.9927667720   -1.4683688084    1.2851177458    0.0004221752    0.0001218703   -0.0001172423
O    3.8075929789    1.4841225607   -3.3055137026    0.0008968008   -0.0001835768   -0.0022111489
H    4.0062874137    1.5927270369   -2.3644942128   -0.0007996131   -0.0003722958    0.0015220932
C    4.9510090833    0.9470381457   -3.9790123636   -0.0008700614    0.0002339704    0.0014763275
H    5.5799618975    0.2724179166   -3.3584719795   -0.0001285552    0.0001475813    0.0000010284
H    5.6533018641    1.8354581940   -4.2691729000    0.0002360273    0.0001496382   -0.0001696928
H    4.5235900632    0.5172104805   -4.9324017064    0.0000282821   -0.0001609511   -0.0004334880
18
energy=-0.0016275946 Properties=species:S:1:pos:R:3:forces:R:3 pbc="T T T" Lattice="200.000 0.000 0.000 0.000 200.000 0.000 0.000 0.000 200.000"
O   -2.4110830319    2.8410537650    2.0165021410    0.0003332150    0.0017786893    0.0000020569
H   -3.2267520489    3.2773588289    2.3169601825   -0.0000349670   -0.0000267395   -0.0000467941
C   -2.7625550594    1.4471019296    2.1761920458   -0.0002607099   -0.0012469851   -0.0001321547
H   -3.6944202235    1.3546716352    1.6307334367    0.0004108623   -0.0001121001    0.0000226257
H   -2.9458171667    1.2525900642    3.2497698213    0.0000899886    0.0001234130    0.0001851194
H   -1.9325950695    0.9696477387    1.7238724278    0.0000154266   -0.0013482866   -0.0010217565
O   -1.2156781326   -0.1281687021   -0.5626289735   -0.0002838498    0.0019267849    0.0004730830
H   -1.8504427048   -0.2399274474   -1.2765673508   -0.0000627349    0.0000668487    0.0001264983
C   -0.2732197629   -1.1978422848   -0.5333607701   -0.0000416519   -0.0022579430   -0.0009009146
H   -0.4558151205   -2.0597050810    0.1821996098    0.0000005142    0.0000627349    0.0001018157
H    0.7003895878   -0.8021859554   -0.2790085379    0.0008572059    0.0013374880    0.0000673629
H   -0.1261277785   -1.6061102522   -1.6279882266   -0.0000154266    0.0001095290    0.0004278316
O    3.4359193522   -0.8188628912   -1.5017216297   -0.0032673581    0.0012824664    0.0014454743
H    3.9665349651   -0.6835145748   -0.7234220668    0.0015431762    0.0002694516   -0.0002632810
C    3.2902869552   -2.2420851284   -1.6041523473    0.0009240545   -0.0012269305   -0.0009081137
H    2.5448519021   -2.5286988798   -0.8115146006    0.0002293424   -0.0008525779    0.0006972832
H    4.1996069070   -2.8852367686   -1.5514765685   -0.0008530921    0.0003470990    0.0001717497
H    2.8173074285   -2.3688216537   -2.5348891667    0.0004160045   -0.0002329420   -0.0004473720
18
energy=-0.0016250912 Properties=species:S:1:pos:R:3:forces:R:3 pbc="T T T" Lattice="200.000 0.000 0.000 0.000 200.000 0.000 0.000 0.000 200.000"
O   -0.2801075312   -2.3031589053   -0.8782127504    0.0016732741    0.0001372969    0.0000102844
H   -0.6504113991   -2.4252784156   -0.0273503620    0.0002020887   -0.0002483686    0.0000102844
C   -0.8339087863   -1.1497237133   -1.4753684656   -0.0003640682    0.0003424710   -0.0007055108
H   -0.2593232351   -1.0723747597   -2.4092794556   -0.0001192992    0.0000071991   -0.0000262253
H   -0.8325952355   -0.2752425840   -0.7675520723   -0.0002946484    0.0011328281    0.0005245051
H   -1.8989507311   -1.2406831380   -1.7217056288    0.0003923504    0.0001311263    0.0002709943
O   -1.8060993613    3.8983920627    1.9866996523   -0.0001609511   -0.0017807462   -0.0006911126
H   -1.1272975830    3.9519298905    2.6992744232    0.0006227212    0.0003347577   -0.0001090148
C   -3.0690541708    4.5243530615    2.4521296053   -0.0004221752    0.0007456200    0.0004674266
H   -2.9454922760    5.6643471321    2.3077881544    0.0000637634   -0.0004129192   -0.0000179977
H   -3.0580466067    4.0633637413    3.4113429609   -0.0000030853    0.0001794630   -0.0001033584
H   -3.8931977320    4.1641746996    1.9240796853   -0.0002195722    0.0001326689    0.0000272537
O    3.1296770370   -2.4712547339   -0.4052486756    0.0012726962    0.0006684869    0.0005723276
H    2.2903767317   -2.3069715903   -0.0312680809   -0.0014645005   -0.0010212423   -0.0007775017
C    2.8497088631   -2.4604564463   -1.8218360133   -0.0003028760    0.0001475813    0.0000179977
H    3.3440176722   -1.6338470244   -2.2659540563    0.0003800091    0.0000591354   -0.0000575927
H    1.7961788549   -2.4161089490   -2.0035820098   -0.0013724550   -0.0003445278    0.0006571740
H    3.2208605888   -3.4602864971   -2.2093384446    0.0001172423   -0.0002139158   -0.0000689056
18
energy=-0.0015315929 Properties=species:S:1:pos:R:3:forces:R:3 pbc="T T T" Lattice="200.000 0.000 0.000 0.000 200.000 0.000 0.000 0.000 200.000"
O    2.4686818249    0.3301146762    2.7378852409    0.0006268350   -0.0014742707   -0.0028462114
H    2.3783900349   -0.5245581226    3.1946480356    0.0000719909   -0.0003188168    0.0004031490
C    1.6823561292    1.3460784743    3.3346951054   -0.0008875449    0.0016861296   -0.0000349670
H    0.7523746863    0.8655060570    3.6625304850    0.0002015745   -0.0001167281   -0.0000000000
H    1.6270014309    2.1036279745    2.4677703839    0.0000740478   -0.0003707531    0.0004689693
H    2.1968678851    1.8372756797    4.1881340830    0.0002041456   -0.0003908077   -0.0000406234
O    1.5371776710    0.1859714700    0.1365632681   -0.0029757950   -0.0000987304   -0.0039610418
H    2.1081693865    0.0886206146    0.8883585683    0.0020275721    0.0011348850    0.0057176196
C    2.3043184023    0.6673637984   -0.9009985918   -0.0001059295   -0.0000370239    0.0005425028
H    3.3320634956    0.2465746996   -0.8153980188   -0.0000642776    0.0000498794    0.0000442230
H    2.2976405099    1.7502382398   -1.0096499266   -0.0000277679    0.0001696928   -0.0000097702
H    1.8995067920    0.3185043659   -1.8776093512   -0.0002499112    0.0000457656   -0.0002529966
O   -3.7531208492   -1.4103741543   -2.0708872370   -0.0040880543    0.0004627986    0.0007286507
H   -3.1971347448   -0.7375413085   -1.6724231799    0.0040443456   -0.0004602275   -0.0016969282
C   -4.3175043022   -1.0679462793   -3.3343206706    0.0016912718   -0.0008047553    0.0005440455
H   -4.8002576236   -0.0792921775   -3.3875591935   -0.0000509078    0.0003753811   -0.0002411695
H   -5.0880306279   -1.7534095482   -3.5057807853   -0.0005039363   -0.0002709943   -0.0000442230
H   -3.5764832491   -1.1858036677   -4.1572164295    0.0000138840    0.0004175472    0.0006777428
18
energy=-0.0015533348 Properties=species:S:1:pos:R:3:forces:R:3 pbc="T T T" Lattice="200.000 0.000 0.000 0.000 200.000 0.000 0.000 0.000 200.000"
O    1.1381011148   -0.2538351273    0.2798416879   -0.0017267530    0.0012968645   -0.0003969784
H    1.7169534735    0.4872239695    0.1123609258    0.0009970739    0.0004381160    0.0004103481
C    1.3405715662   -1.4921920642   -0.3360109462    0.0001367827   -0.0011076313   -0.0005548441
H    1.2134934295   -1.4374707401   -1.4082073951    0.0000781615   -0.0000365097    0.0001357543
H    0.6329550076   -2.2205194521   -0.0123579443    0.0001810057   -0.0001568373   -0.0000092560
H    2.3812902535   -1.7347348448   -0.1617893755    0.0001568373   -0.0000766189    0.0000586212
O   -2.1032762685   -1.0518843553    2.9343503630   -0.0010505528    0.0003753811   -0.0014840409
H   -2.3485532885   -1.9625017301    3.0153699649    0.0004838817   -0.0002478544    0.0000164551
C   -1.3827059282   -0.7190211818    4.0949289770    0.0014053651   -0.0001218703    0.0008608054
H   -0.6379219818   -1.5754694539    4.2589976153   -0.0001609511    0.0003686962   -0.0004232036
H   -2.0431035632   -0.6598885715    4.9443008709   -0.0002879636    0.0000956450   -0.0000642776
H   -0.9712714075    0.3530423358    4.0409298339    0.0001223845   -0.0000210830    0.0000082275
O    0.6213071370    1.7039253725   -2.8089679007   -0.0004699977   -0.0002277998    0.0018949032
H    1.5032853393    2.0967235010   -2.6081345075    0.0004807963   -0.0004103481    0.0000221115
C    0.3219921902    1.7898224463   -4.1836439372   -0.0003327008    0.0000195404   -0.0008587485
H   -0.0283750891    2.8077576380   -4.4487490468    0.0000236542   -0.0000971877    0.0001640364
H   -0.4113645355    0.9593857133   -4.2272012872    0.0000534789   -0.0000303390   -0.0001804915
H    1.1165349513    1.5864704551   -4.8771709987   -0.0000920455   -0.0000591354    0.0003995495
18
energy=-0.0015844646 Properties=species:S:1:pos:R:3:forces:R:3 pbc="T T T" Lattice="200.000 0.000 0.000 0.000 200.000 0.000 0.000 0.000 200.000"
O    0.6166416206    3.9239491847   -0.7529195253   -0.0027845049   -0.0012243594   -0.0006263208
H    0.7505800044    3.7248437415   -1.7284770017    0.0007543617    0.0000545074   -0.0001624937
C    1.8565825696    4.3783143161   -0.2963184882    0.0026060704    0.0001763777    0.0010963185
H    2.3043633827    5.2152033125   -0.8699531457   -0.0005409601   -0.0001969465   -0.0000606780
H    2.6167617407    3.6230077489   -0.2776750804   -0.0007132241    0.0002118589   -0.0000719909
H    1.6970135064    4.6565082531    0.6676799933    0.0000102844   -0.0000005142   -0.0000565643
O    1.0231492285   -2.6350795712    0.0763450805    0.0017447507   -0.0008206962   -0.0002432264
H    0.1748225556   -2.2748995908    0.3129900551   -0.0030133331   -0.0001645506   -0.0001640364
C    0.9135602328   -4.0570894130   -0.0395649168   -0.0003239590    0.0008494925    0.0002200864
H    0.4215885924   -4.4219530575    0.8581014054   -0.0001707213    0.0001110717   -0.0001198134
H    2.0990750757   -4.1809605628   -0.0654558053    0.0002879636   -0.0000632491   -0.0000272537
H    0.2797684811   -4.2846513927   -0.9770696519   -0.0001172423    0.0001100432    0.0001280409
O   -2.3774902529   -1.4458979925    0.7723586946    0.0019699794   -0.0020702524    0.0001594084
H   -2.0874662882   -1.4160869254    1.6587782997   -0.0003851513    0.0001208419    0.0004437724
C   -1.9925549011   -0.1952855268    0.2161328081    0.0000581069    0.0014470170   -0.0008397224
H   -2.2882018399    0.5666656600    0.9300060080    0.0000056564    0.0006124368   -0.0000581069
H   -2.5132407362   -0.0563226785   -0.6236063892    0.0001640364   -0.0000560501    0.0003594402
H   -1.0102763797   -0.1593119097    0.0211165450    0.0004473720    0.0009050284    0.0000246826
18
energy=-0.0015470217 Properties=species:S:1:pos:R:3:forces:R:3 pbc="T T T" Lattice="200.000 0.000 0.000 0.000 200.000 0.000 0.000 0.000 200.000"
O    2.2662262160    2.4566400794   -1.1903801733    0.0000869033   -0.0008664618    0.0017072126
H    2.9672025089    2.6342969858   -1.8064846902    0.0000992446   -0.0000719909    0.0003506985
C    1.1035895229    2.2420461501   -1.9284409442   -0.0004905665    0.0000930739   -0.0002787076
H    1.1309678101    2.4771573468   -2.9684501506    0.0000632491   -0.0000874175    0.0001480956
H    0.2793976270    2.8404692276   -1.5018795389   -0.0001228987   -0.0000102844   -0.0000035995
H    0.7971392584    1.2164126973   -1.9661746303   -0.0003260159   -0.0002617383   -0.0001516951
O   -4.4628712806   -2.8493212739   -0.1882049269   -0.0013184618    0.0001223845   -0.0031017791
H   -4.3693987793   -3.8048110717   -0.3552652461    0.0007111672   -0.0000498794    0.0004432582
C   -4.2555014450   -2.6704993492    1.1832486697    0.0019201000   -0.0006242639    0.0030791534
H   -4.9681011520   -3.2787879315    1.8137777545   -0.0003645825    0.0000889602   -0.0002447690
H   -4.2934167427   -1.5283262034    1.5322120583    0.0001995176    0.0000467941    0.0003285870