 6
 energy=-.26801985956607693 cutoff=9.00000000 nneightol=1.20000000 pbc="T T T" Lattice="200.00000000       0.00000000       0.00000000       0.00000000     200.00000000       0.00000000       0.00000000       0.00000000     200.00000000" Properties=species:S:1:pos:R:3:forces:R:3:Z:I:1:map_shift:I:3:n_neighb:I:1:force:R:3
 O              -0.44612069     -0.95593380      0.91541174     -0.07016592      0.08725759      0.13812019       8       0       0       0       5     -0.06537018      0.08023769      0.13419621
 H               0.14941797     -1.19809322      1.66430665      0.02429538     -0.00506507      0.06858470       1       0       0       0       5      0.02352089     -0.00211788      0.06527283
 H              -0.19432975     -1.53967083      0.23018860      0.01979184     -0.01088708     -0.14320583       1       0       0       0       5      0.01400885     -0.00800000     -0.13793559
 O               0.44742414      0.97191109     -0.95844298      0.03347114      0.36840106     -0.25913945       8       0       0       0       5      0.02972280      0.37162015     -0.24545999
 H               0.07239749      1.81203472     -1.18050795      0.09548615     -0.03757616     -0.09935926       1       0       0       0       5      0.09492226     -0.03672048     -0.10805471
 H              -0.04817734      0.67209671     -0.03088479     -0.10287807     -0.40213033      0.29499914       1       0       0       0       5     -0.09680461     -0.40501947      0.29198126
 6
 energy=-.24776815391126231 cutoff=9.00000000 nneightol=1.20000000 pbc="T T T" Lattice="200.00000000       0.00000000       0.00000000       0.00000000     200.00000000       0.00000000       0.00000000       0.00000000     200.00000000" Properties=species:S:1:pos:R:3:forces:R:3:Z:I:1:map_shift:I:3:n_neighb:I:1:force:R:3
 O               0.88542170      0.91745004      0.60145470     -0.11862042     -0.06683583      0.10084793       8       0       0       0       5     -0.11644824     -0.06821442      0.10145897
 H               1.58915712      0.65582463      0.00266069      0.07316023     -0.01745831     -0.05606651       1       0       0       0       5      0.06784467     -0.01569494     -0.05670282
 H               0.28180136      1.60859088      0.13828340      0.00107318      0.15687073     -0.05443591       1       0       0       0       5      0.00306594      0.15254478     -0.05344822
 O              -0.89523879     -0.92384321     -0.59132151     -0.28041584     -0.33900872     -0.14171253       8       0       0       0       5     -0.27305249     -0.32966037     -0.15183697
 H              -0.43046471     -0.43441391      0.10382523      0.36949892      0.23196854      0.27396495       1       0       0       0       5      0.36413129      0.23172606      0.27387198
 H              -1.28465161     -1.72851274     -0.40562939     -0.04469555      0.03446204     -0.12259895       1       0       0       0       5     -0.04554116      0.02929888     -0.11334294
 6
 energy=-.23892570101094815 cutoff=9.00000000 nneightol=1.20000000 pbc="T T T" Lattice="200.00000000       0.00000000       0.00000000       0.00000000     200.00000000       0.00000000       0.00000000       0.00000000     200.00000000" Properties=species:S:1:pos:R:3:forces:R:3:Z:I:1:map_shift:I:3:n_neighb:I:1:force:R:3
 O               1.05138733      0.89872304      0.41611706      0.02708914      0.02487645     -0.00651106       8       0       0       0       5      0.02951900      0.02080035     -0.00195457
 H               1.36684651      0.68034525      1.35179407     -0.05639818     -0.05605108      0.06437426       1       0       0       0       5     -0.05880806     -0.05532005      0.06101871
 H               1.82514671      1.29077859      0.03524475     -0.01040988      0.00600096     -0.08205728       1       0       0       0       5     -0.01028284      0.00778674     -0.08468802
 O              -1.15798855     -0.93671188     -0.40079354     -0.18694544     -0.20007709     -0.15237593       8       0       0       0       5     -0.17952816     -0.19454990     -0.15645926
 H              -1.12537109     -1.10474524     -1.37908934     -0.03291218     -0.01033738      0.06916628       1       0       0       0       5     -0.03455712     -0.01316232      0.06854232
 H              -0.37437325     -0.26332200     -0.25120386      0.25957551      0.23558814      0.10740424       1       0       0       0       5      0.25365718      0.23444518      0.11354083
 6
 energy=-.22922608101734024 cutoff=9.00000000 nneightol=1.20000000 pbc="T T T" Lattice="200.00000000       0.00000000       0.00000000       0.00000000     200.00000000       0.00000000       0.00000000       0.00000000     200.00000000" Properties=species:S:1:pos:R:3:forces:R:3:Z:I:1:map_shift:I:3:n_neighb:I:1:force:R:3
 O              -0.71532369     -1.11758713      0.63616680     -0.20167992     -0.22585497      0.05546487       8       0       0       0       5     -0.20394360     -0.23200063      0.06234267
 H              -0.46102799     -0.24744808      0.33401354      0.18166285      0.33846622     -0.00722120       1       0       0       0       5      0.18595323      0.34288795     -0.01203459
 H              -1.66710185     -1.20183938      0.85156120      0.04988455     -0.05595235     -0.00387774       1       0       0       0       5      0.04629778     -0.05870477     -0.00420717
 O               0.69231687      1.07363969     -0.61025359     -0.02926018     -0.00904051     -0.06930615       8       0       0       0       5     -0.02603978     -0.00767807     -0.07438044
 H               1.36302838      1.75879766     -0.44632697     -0.03226478      0.02517727      0.08759338       1       0       0       0       5     -0.03058210      0.02317127      0.08731546
 H               1.13032482      0.38813664     -1.15060898      0.03165800     -0.07279616     -0.06265213       1       0       0       0       5      0.02831448     -0.06767575     -0.05903592
 6
 energy=-.23451465095986915 cutoff=9.00000000 nneightol=1.20000000 pbc="T T T" Lattice="200.00000000       0.00000000       0.00000000       0.00000000     200.00000000       0.00000000       0.00000000       0.00000000     200.00000000" Properties=species:S:1:pos:R:3:forces:R:3:Z:I:1:map_shift:I:3:n_neighb:I:1:force:R:3
 O              -1.13368702     -0.57654003     -0.73423631      0.19158782      0.04696583     -0.05574409       8       0       0       0       5      0.19298066      0.05593908     -0.05706476
 H              -1.84631987     -0.90976332     -0.21986621     -0.02182250      0.03914505      0.09108339       1       0       0       0       5     -0.02150844      0.03441116      0.09264512
 H              -0.60498810     -1.36281869     -0.98306316     -0.03173050     -0.14301711     -0.09414918       1       0       0       0       5     -0.03302519     -0.14863606     -0.09496948
 O               1.17967013      0.60873312      0.75450040      0.26476040      0.16924134      0.11316917       8       0       0       0       5      0.26848959      0.17403789      0.12095638
 H               0.46459614      0.28398830      0.10340782     -0.44504411     -0.03835726     -0.08168087       1       0       0       0       5     -0.45197276     -0.04056361     -0.08831594
 H               1.25674944      1.47754221      0.77783780      0.04224940     -0.07397836      0.02732209       1       0       0       0       5      0.04503614     -0.07518846      0.02674867
 6
 energy=-.23094126962078501 cutoff=9.00000000 nneightol=1.20000000 pbc="T T T" Lattice="200.00000000       0.00000000       0.00000000       0.00000000     200.00000000       0.00000000       0.00000000       0.00000000     200.00000000" Properties=species:S:1:pos:R:3:forces:R:3:Z:I:1:map_shift:I:3:n_neighb:I:1:force:R:3
 O               0.05069047     -0.13892522     -1.41421075      0.08504644      0.02056523     -0.60361022       8       0       0       0       5      0.08445780      0.01780956     -0.59890877
 H              -0.04694875     -0.00358719     -0.43991443      0.13167546      0.07703180      0.44659808       1       0       0       0       5      0.13157537      0.08085802      0.43809278
 H               0.58418025      0.52279361     -1.82954734     -0.08685753     -0.08006724     -0.04077821       1       0       0       0       5     -0.08534785     -0.07927302     -0.04219222
 O              -0.06921592      0.12657036      1.34256826     -0.10771278      0.00465678      0.10899216       8       0       0       0       5     -0.10719066      0.01069798      0.10170026
 H               0.66685767     -0.07523059      1.83380520      0.11463727     -0.01050861     -0.00322776       1       0       0       0       5      0.11300245     -0.01427092      0.00142069
 H              -0.91000549     -0.24784761      1.57295043     -0.13678938     -0.01167795      0.09202545       1       0       0       0       5     -0.13649710     -0.01582161      0.09988726
 6
 energy=-.22315145574203324 cutoff=9.00000000 nneightol=1.20000000 pbc="T T T" Lattice="200.00000000       0.00000000       0.00000000       0.00000000     200.00000000       0.00000000       0.00000000       0.00000000     200.00000000" Properties=species:S:1:pos:R:3:forces:R:3:Z:I:1:map_shift:I:3:n_neighb:I:1:force:R:3
 O              -1.16034120     -0.43588493     -0.60827820      0.04554093     -0.03773094     -0.04054476       8       0       0       0       5      0.04888828     -0.04184261     -0.03694460
 H              -0.67409161     -1.26676756     -0.66470214      0.01790773     -0.16478973     -0.10420013       1       0       0       0       5      0.00653134     -0.16404155     -0.10602301
 H              -2.01922285     -0.68530058     -0.35074745     -0.03466464      0.05828640      0.07153632       1       0       0       0       5     -0.03078675      0.05728437      0.06711421
 O               1.21214632      0.45627483      0.59082691      0.35706455      0.16445754      0.22651832       8       0       0       0       5      0.35154027      0.16377112      0.21972835
 H               1.54209360      1.32703847      1.05406321      0.07863565     -0.10000461     -0.03409232       1       0       0       0       5      0.08198979     -0.09423886     -0.02987306
 H               0.32883665      0.30134883      0.23841806     -0.46448422      0.07978134     -0.11921795       1       0       0       0       5     -0.45816293      0.07906752     -0.11400188
 6
 energy=-.22920631674107664 cutoff=9.00000000 nneightol=1.20000000 pbc="T T T" Lattice="200.00000000       0.00000000       0.00000000       0.00000000     200.00000000       0.00000000       0.00000000       0.00000000     200.00000000" Properties=species:S:1:pos:R:3:forces:R:3:Z:I:1:map_shift:I:3:n_neighb:I:1:force:R:3
 O              -1.23142928     -0.62666208     -0.36480296     -0.00794368      0.11659234      0.01967100       8       0       0       0       5     -0.00792471      0.11779894      0.01127423
 H              -1.40795642     -1.49673338     -0.45484861      0.06461903     -0.05738754     -0.05011440       1       0       0       0       5      0.06405956     -0.05687993     -0.04388441
 H              -1.61982055     -0.29017403      0.49535959     -0.09906101      0.00472826      0.08946103       1       0       0       0       5     -0.09977416      0.00064484      0.09133694
 O               1.30444040      0.62820840      0.36490340      0.18034079      0.26293851      0.12902105       8       0       0       0       5      0.18330368      0.25947335      0.13276656
 H               0.48364415      0.26478592     -0.03384529     -0.18726323     -0.28261825     -0.20733583       1       0       0       0       5     -0.18929974     -0.27691023     -0.21000602
 H               1.38511229      1.49757421     -0.00826016      0.04930811     -0.04425383      0.01929819       1       0       0       0       5      0.04963538     -0.04412697      0.01851270
 6
 energy=-.22089520938216647 cutoff=9.00000000 nneightol=1.20000000 pbc="T T T" Lattice="200.00000000       0.00000000       0.00000000       0.00000000     200.00000000       0.00000000       0.00000000       0.00000000     200.00000000" Properties=species:S:1:pos:R:3:forces:R:3:Z:I:1:map_shift:I:3:n_neighb:I:1:force:R:3
 O               0.55946304      1.34074371     -0.32054442      0.24821895      0.37124573     -0.07629749       8       0       0       0       5      0.25531805      0.37278091     -0.07049062
 H               0.11752432      0.43819865     -0.24607910     -0.14956160     -0.30802692      0.12445323       1       0       0       0       5     -0.15102434     -0.31279711      0.12656910
 H               1.38345160      1.24378605      0.28637481     -0.07284296      0.02568275     -0.03787852       1       0       0       0       5     -0.07889848      0.02797168     -0.04409841
 O              -0.56470572     -1.23344780      0.27645615      0.00016506     -0.10882452      0.00779096       8       0       0       0       5      0.00253790     -0.09576248     -0.00060152
 H               0.04496710     -1.84139886      0.65188734      0.06558730     -0.02806154      0.02448205       1       0       0       0       5      0.07080909     -0.03728939      0.03144968
 H              -1.46271758     -1.54386257      0.00769946     -0.09156676      0.04798450     -0.04254970       1       0       0       0       5     -0.09874222      0.04509638     -0.04282823
 6
 energy=-.22271038892242526 cutoff=9.00000000 nneightol=1.20000000 pbc="T T T" Lattice="200.00000000       0.00000000       0.00000000       0.00000000     200.00000000       0.00000000       0.00000000       0.00000000     200.00000000" Properties=species:S:1:pos:R:3:forces:R:3:Z:I:1:map_shift:I:3:n_neighb:I:1:force:R:3
 O              -0.74489112     -1.33728278      0.27195118     -0.14300065     -0.23050199      0.14006908       8       0       0       0       5     -0.14388289     -0.22897418      0.14004547
 H              -0.13832930     -0.57089163      0.16683177      0.08762012      0.27196566     -0.18986004       1       0       0       0       5      0.08546047      0.26980376     -0.18636306
 H              -1.59783953     -0.91830104      0.57506592      0.05611587      0.00040675     -0.04890136       1       0       0       0       5      0.05725885     -0.00127923     -0.05023701
 O               0.70884249      1.23704672     -0.27934820     -0.01161470     -0.04156549      0.13269927       8       0       0       0       5     -0.01109994     -0.04048410      0.12969540
 H               1.07380528      1.59646864      0.49622375      0.02820500      0.05570810      0.04654623       1       0       0       0       5      0.02966025      0.05529017      0.04587555
 H               1.23462021      1.48392874     -1.12069702     -0.01732564     -0.05601406     -0.08055370       1       0       0       0       5     -0.01739675     -0.05435642     -0.07901635
 6
 energy=-.22126291365142517 cutoff=9.00000000 nneightol=1.20000000 pbc="T T T" Lattice="200.00000000       0.00000000       0.00000000       0.00000000     200.00000000       0.00000000       0.00000000       0.00000000     200.00000000" Properties=species:S:1:pos:R:3:forces:R:3:Z:I:1:map_shift:I:3:n_neighb:I:1:force:R:3
 O              -0.04603493      1.36555173     -0.19529574     -0.01249042      0.87771298     -0.06958228       8       0       0       0       5     -0.01366003      0.86914009     -0.06481053
 H              -0.12407246      0.33820004      0.04880937     -0.01396932     -0.45953639      0.22594239       1       0       0       0       5     -0.00793457     -0.44580138      0.21629921
 H              -0.40179566      1.73508568      0.64617754      0.01841887      0.03010042     -0.11166816       1       0       0       0       5      0.01485785      0.03246429     -0.10981877
 O               0.01345146     -1.30397923      0.17241028     -0.05071193     -0.34491249      0.02804200       8       0       0       0       5     -0.05362740     -0.35144900      0.00721323
 H               0.87502609     -1.59069196      0.49692886      0.08425763     -0.00415850      0.08448543       1       0       0       0       5      0.09530985     -0.00877522      0.09449597
 H               0.16809067     -1.46003086     -0.82861894     -0.02550483     -0.09920654     -0.15721834       1       0       0       0       5     -0.03494571     -0.09557879     -0.14337912
 6
 energy=-.22627661672744917 cutoff=9.00000000 nneightol=1.20000000 pbc="T T T" Lattice="200.00000000       0.00000000       0.00000000       0.00000000     200.00000000       0.00000000       0.00000000       0.00000000     200.00000000" Properties=species:S:1:pos:R:3:forces:R:3:Z:I:1:map_shift:I:3:n_neighb:I:1:force:R:3
 O               0.67953864      1.11527772     -0.35286699      0.11394513      0.20430810     -0.01643141       8       0       0       0       5      0.10583170      0.20876706     -0.02578125
 H               0.18680454      1.46604323     -1.06105005     -0.10950432     -0.07560072     -0.04009790       1       0       0       0       5     -0.11013643     -0.08110168     -0.03473745
 H               1.53144995      1.62235707     -0.35206470      0.07185308     -0.04396895      0.06006406       1       0       0       0       5      0.07902367     -0.04243689      0.06291374
 O              -0.70246217     -1.21066407      0.34896389     -0.29267744     -0.29004154      0.16003833       8       0       0       0       5     -0.29957414     -0.29366907      0.15694497
 H              -0.04627608     -0.46620454      0.30299105      0.19594173      0.26223917     -0.11332189       1       0       0       0       5      0.20975212      0.26753325     -0.11262716
 H              -1.30807718     -1.10797819      1.17208364      0.02044181     -0.05693554     -0.05025016       1       0       0       0       5      0.01510309     -0.05909268     -0.04671286
 6
 energy=-.22300338899269714 cutoff=9.00000000 nneightol=1.20000000 pbc="T T T" Lattice="200.00000000       0.00000000       0.00000000       0.00000000     200.00000000       0.00000000       0.00000000       0.00000000     200.00000000" Properties=species:S:1:pos:R:3:forces:R:3:Z:I:1:map_shift:I:3:n_neighb:I:1:force:R:3
 O               0.44987150     -1.01205707      0.96496572      0.12663970     -0.35509611      0.16510083       8       0       0       0       5      0.12448824     -0.36191895      0.16872468
 H               0.95118945     -1.72449786      0.59313004     -0.02480960      0.02067938      0.07988624       1       0       0       0       5     -0.02284273      0.01949772      0.07995483
 H               0.46382640     -0.18658873      0.41676715     -0.15636319      0.27611490     -0.24614458       1       0       0       0       5     -0.15756035      0.28398476     -0.25053842
 O              -0.44834655      1.00560443     -0.85391290      0.05413304      0.08211024     -0.08664721       8       0       0       0       5      0.05557594      0.08371027     -0.08589586
 H              -1.30336473      0.57890148     -1.05706506     -0.05131614     -0.07564803      0.08686524       1       0       0       0       5     -0.05033882     -0.07614548      0.08789912
 H              -0.13585911      1.43461802     -1.71574821      0.05171620      0.05183961      0.00093948       1       0       0       0       5      0.05067772      0.05087167     -0.00014435
 6
 energy=-.21413544103241403 cutoff=9.00000000 nneightol=1.20000000 pbc="T T T" Lattice="200.00000000       0.00000000       0.00000000       0.00000000     200.00000000       0.00000000       0.00000000       0.00000000     200.00000000" Properties=species:S:1:pos:R:3:forces:R:3:Z:I:1:map_shift:I:3:n_neighb:I:1:force:R:3
 O              -0.76660639      0.49358602      1.02387798      0.06135938      0.13628802      0.17355925       8       0       0       0       5      0.06643035      0.12994518      0.17152944
 H              -0.29593168      0.71811697      1.87778066      0.00906982      0.04927468      0.06806071       1       0       0       0       5      0.00554596      0.04976517      0.06875095
 H              -1.59447622      0.08421973      1.17917619     -0.04603818     -0.07814714     -0.11669827       1       0       0       0       5     -0.04268666     -0.07525773     -0.11766938
 O               0.75406993     -0.50487150     -1.13012224      0.42285446     -0.15363731     -0.26516766       8       0       0       0       5      0.42136629     -0.15871368     -0.26880114
 H               0.38255227     -0.01341241     -0.34652680     -0.39641323      0.08521511      0.25312615       1       0       0       0       5     -0.39972242      0.09191775      0.25677380
 H               1.70686664     -0.60977212     -1.02384773     -0.05083226     -0.03899387     -0.11288018       1       0       0       0       5     -0.05093352     -0.03765670     -0.11058367
 6
 energy=-.21713865736598872 cutoff=9.00000000 nneightol=1.20000000 pbc="T T T" Lattice="200.00000000       0.00000000       0.00000000       0.00000000     200.00000000       0.00000000       0.00000000       0.00000000     200.00000000" Properties=species:S:1:pos:R:3:forces:R:3:Z:I:1:map_shift:I:3:n_neighb:I:1:force:R:3
 O              -0.65117938     -1.14355201      0.44581649      0.01088194     -0.12609308     -0.04104098       8       0       0       0       5      0.00585540     -0.12027747     -0.03569490
 H              -1.43674866     -0.75130765      0.88970908     -0.06609793      0.06546749      0.00201780       1       0       0       0       5     -0.05886197      0.06156497     -0.00239949
 H              -0.07983445     -1.62234110      1.07712793      0.02691842     -0.03796594      0.03680997       1       0       0       0       5      0.02612484     -0.03974786      0.03645828
 O               0.63005289      1.20423525     -0.49208662      0.28377268      0.31632285     -0.12649006       8       0       0       0       5      0.28455545      0.31729561     -0.12782029
 H               1.56816534      1.09847573     -0.83548969     -0.04520000      0.07123910     -0.01645506       1       0       0       0       5     -0.04690740      0.06984706     -0.01463957
 H               0.28379171      0.31185243     -0.39682879     -0.21027460     -0.28897042      0.14515884       1       0       0       0       5     -0.21076631     -0.28868231      0.14409597
 6
 energy=-.21097456028645137 cutoff=9.00000000 nneightol=1.20000000 pbc="T T T" Lattice="200.00000000       0.00000000       0.00000000       0.00000000     200.00000000       0.00000000       0.00000000       0.00000000     200.00000000" Properties=species:S:1:pos:R:3:forces:R:3:Z:I:1:map_shift:I:3:n_neighb:I:1:force:R:3
 O              -1.29266662     -0.23654593      0.62239575     -0.40591088     -0.04108932      0.16927990       8       0       0       0       5     -0.41157996     -0.03921090      0.16770564
 H              -0.94531143     -0.26289948      1.48823788      0.03477109      0.00956245     -0.09804388       1       0       0       0       5      0.03924281      0.01032648     -0.09438347
 H              -0.55183154     -0.28411955      0.04567831      0.26967223      0.01935269      0.01313577       1       0       0       0       5      0.27086881      0.01619490      0.00856860
 O               1.19532348      0.21787438     -0.59256491      0.12643709     -0.00371627     -0.08768542       8       0       0       0       5      0.12587958     -0.00093327     -0.08502868
 H               1.91563147     -0.23727657     -0.96307669      0.01712561     -0.07428380     -0.00198952       1       0       0       0       5      0.01820990     -0.07491570     -0.00331018
 H               1.12679225      1.08069844     -1.04439144     -0.04209565      0.09017425      0.00530316       1       0       0       0       5     -0.04262114      0.08853849      0.00644809
 6
 energy=-.21656282551564413 cutoff=9.00000000 nneightol=1.20000000 pbc="T T T" Lattice="200.00000000       0.00000000       0.00000000       0.00000000     200.00000000       0.00000000       0.00000000       0.00000000     200.00000000" Properties=species:S:1:pos:R:3:forces:R:3:Z:I:1:map_shift:I:3:n_neighb:I:1:force:R:3
 O              -0.35791921     -0.77504026      1.24087811     -0.02421414     -0.19290371      0.26811157       8       0       0       0       5     -0.02344917     -0.19035505      0.27229938
 H              -0.69996295     -1.56476453      0.87790842      0.03703263      0.06559347      0.00147427       1       0       0       0       5      0.03491410      0.06388332     -0.00053834
 H              -0.16520963     -0.26053480      0.44829209     -0.09409621      0.10240602     -0.26971388       1       0       0       0       5     -0.09130469      0.09959354     -0.27123350
 O               0.33195898      0.74980913     -1.13649465      0.11968332      0.04385274     -0.04124770       8       0       0       0       5      0.12148043      0.04999757     -0.03924838
 H               0.08727435      1.06098344     -2.08139472     -0.10110298     -0.03865397      0.00450457       1       0       0       0       5     -0.10095525     -0.04021891      0.00143229
 H               1.19000581      1.16484944     -0.90184872      0.06269738      0.01970596      0.03687116       1       0       0       0       5      0.05931457      0.01709954      0.03728854
 6
 energy=-.21301210508557059 cutoff=9.00000000 nneightol=1.20000000 pbc="T T T" Lattice="200.00000000       0.00000000       0.00000000       0.00000000     200.00000000       0.00000000       0.00000000       0.00000000     200.00000000" Properties=species:S:1:pos:R:3:forces:R:3:Z:I:1:map_shift:I:3:n_neighb:I:1:force:R:3
 O               0.43220681      1.08987362     -0.84840044      0.10724329      0.17986462     -0.27195383       8       0       0       0       5      0.10675978      0.18125990     -0.27431630
 H               0.51834809      0.16598910     -0.56125800     -0.12778178     -0.20962051      0.32321957       1       0       0       0       5     -0.12667229     -0.20765280      0.31927787
 H               0.99276590      1.23572526     -1.64417193     -0.01776787      0.08096404      0.01041503       1       0       0       0       5     -0.01821946      0.07822229      0.01347330
 O              -0.41554947     -1.07230347      0.85169519      0.06606707     -0.13912086     -0.06284085       8       0       0       0       5      0.06350815     -0.13421659     -0.05778520
 H              -0.47621126     -0.56163418      1.70943858      0.03083421      0.07047446      0.00972134       1       0       0       0       5      0.02952676      0.06375761      0.00669696
 H              -1.29933092     -1.11899877      0.44368855     -0.05859545      0.01743774     -0.00856229       1       0       0       0       5     -0.05490294      0.01862960     -0.00734663
 6
 energy=-.20853972170106796 cutoff=9.00000000 nneightol=1.20000000 pbc="T T T" Lattice="200.00000000       0.00000000       0.00000000       0.00000000     200.00000000       0.00000000       0.00000000       0.00000000     200.00000000" Properties=species:S:1:pos:R:3:forces:R:3:Z:I:1:map_shift:I:3:n_neighb:I:1:force:R:3
 O               1.57838549     -0.18105609     -0.04994841      0.23187547     -0.04418544      0.08512203       8       0       0       0       5      0.22909277     -0.04745975      0.08761859
 H               1.78232360     -1.00485567      0.41994867     -0.00088549      0.02903238     -0.04695349       1       0       0       0       5      0.00066134      0.03053999     -0.04784264
 H               0.61642932     -0.09912269      0.13969408     -0.32812832      0.04290760     -0.11491392       1       0       0       0       5     -0.32492206      0.04322303     -0.11540538
 O              -1.49329120      0.17671811     -0.00703076      0.11364071     -0.05536871      0.11296040       8       0       0       0       5      0.11601381     -0.05367793      0.10760923
 H              -1.80483144      0.99109290     -0.50008709      0.04105384      0.03079359     -0.06655815       1       0       0       0       5      0.03756071      0.02923329     -0.06354909
 H              -1.94475690      0.18174906      0.84496424     -0.05755672     -0.00317891      0.03034313       1       0       0       0       5     -0.05840657     -0.00185862      0.03156928
 6
 energy=-.21427307411770538 cutoff=9.00000000 nneightol=1.20000000 pbc="T T T" Lattice="200.00000000       0.00000000       0.00000000       0.00000000     200.00000000       0.00000000       0.00000000       0.00000000     200.00000000" Properties=species:S:1:pos:R:3:forces:R:3:Z:I:1:map_shift:I:3:n_neighb:I:1:force:R:3
 O               1.18686889     -0.77759275     -0.23879688     -0.11151389      0.02430978      0.11354352       8       0       0       0       5     -0.11453656      0.02478971      0.11679942
 H               1.67558032     -1.26505045      0.43235030      0.05825555     -0.08406017      0.00013987       1       0       0       0       5      0.05894205     -0.08101147     -0.00464442
 H               1.60354813      0.11018199     -0.39570639      0.07028060      0.08004565     -0.04919241       1       0       0       0       5      0.07459863      0.07596390     -0.04743853
 O              -1.27278994      0.80559632      0.24623447     -0.19434713      0.28056908      0.06464011       8       0       0       0       5     -0.20090664      0.28101124      0.05794518
 H              -1.33855260      0.56877344     -0.65287962      0.06525769     -0.11082998      0.07741335       1       0       0       0       5      0.06763671     -0.11059801      0.08549264