6
energy=-0.2551625273 Properties=species:S:1:pos:R:3:forces:R:3 pbc="T T T" Lattice="200.000 0.000 0.000 0.000 200.000 0.000 0.000 0.000 200.000"
O    0.0340759760    0.9719977859    1.0799271688   -0.0403688937   -0.0358226688   -0.0647450104
H   -0.5951259097    0.7986940951    1.7550605048   -0.0780977785    0.0112089822    0.0385063865
H    0.9071917799    1.0081200176    1.5611582138    0.0765191211   -0.0174552207   -0.0077091963
O   -0.0682297090   -1.0347008189   -1.1537692355    0.0224914979   -0.2138823746   -0.2563266629
H    0.3692110213   -0.4566407304   -1.7638673027   -0.0521728292   -0.0090667389    0.0641675406
H   -0.1391009520   -0.3547894860   -0.3801401115    0.0716293967    0.2650169923    0.2261064283
6
energy=-0.2426455618 Properties=species:S:1:pos:R:3:forces:R:3 pbc="T T T" Lattice="200.000 0.000 0.000 0.000 200.000 0.000 0.000 0.000 200.000"
O    0.2622092854   -0.7736434473    1.2237502986    0.0664208556    0.0387105321   -0.0786747341
H    0.9794521031   -1.4718455041    1.2440134277    0.0684988213   -0.0218250679    0.0137440901
H   -0.5235388831   -1.2855766351    1.4730130353   -0.0797114030    0.0101656284   -0.0286395202
O   -0.2532954802    0.8243107345   -1.3024990257   -0.0968323802    0.1812684428   -0.2269800893
H   -0.7153158889    1.6898756521   -0.9606559655    0.0491029318   -0.0461441061   -0.0344918657
H    0.1178998144    0.2632249205   -0.5062680539   -0.0074783112   -0.1621749150    0.3550426335
6
energy=-0.2097295536 Properties=species:S:1:pos:R:3:forces:R:3 pbc="T T T" Lattice="200.000 0.000 0.000 0.000 200.000 0.000 0.000 0.000 200.000"
O    1.0595054932   -0.8044132683    0.6859807759    0.2606831404   -0.2102509482    0.1818849933
H    1.1210046358   -1.4913153038    0.0344295273   -0.0310188193    0.0868467290    0.0236207265
H    0.2783922641   -0.2898306936    0.5178695156   -0.1753034830    0.1028431057   -0.2217556073
O   -0.9873151224    0.7674009407   -0.6078895504   -0.1044649576    0.0448950641   -0.0477546452
H   -1.8400172035    0.5989374163   -0.9620206864   -0.0344399294   -0.0529678144    0.0405139040
H   -0.7053710323    1.7697634893   -0.8299432439    0.0845440489    0.0286338638    0.0234906287
6
energy=-0.2082202197 Properties=species:S:1:pos:R:3:forces:R:3 pbc="T T T" Lattice="200.000 0.000 0.000 0.000 200.000 0.000 0.000 0.000 200.000"
O   -1.4609591341   -0.4835766287   -0.3980217701   -0.1835376986   -0.1110001881   -0.0603587081
H   -0.5081873415   -0.3619652301   -0.2226105181    0.2697406233    0.1220307357    0.1046639610
H   -1.6296613592   -1.4217110142   -0.1398063933   -0.0038926505    0.0519404015   -0.0082362725
O    1.3625078405    0.4914875455    0.3706094927   -0.0013508577   -0.0450513872   -0.0135538284
H    1.4663263731    1.4926751054    0.1680013977   -0.0729046640    0.0367935174   -0.0209668336
H    2.2343946088    0.1654187100    0.6295737222   -0.0080547526   -0.0547125651   -0.0015478042
6
energy=-0.2069368219 Properties=species:S:1:pos:R:3:forces:R:3 pbc="T T T" Lattice="200.000 0.000 0.000 0.000 200.000 0.000 0.000 0.000 200.000"
O    0.7555925541   -1.2088935626   -0.0492513690    0.1181098031    0.1053226777    0.1166751275
H    0.9965669771   -1.8509658189   -0.7892021076   -0.1208732250   -0.0108906796   -0.0858018326
H    1.6204821031   -0.8212076576    0.1413237425    0.1265471359   -0.0633766692    0.0716227119
O   -0.8833468138    1.2424719347    0.0999465927   -0.0413896218    0.4034133151    0.0282538547
H   -0.2708647313    1.8221513189   -0.2989508674   -0.1011873151   -0.0156497919    0.0181766723
H   -0.3181399828    0.3169798268    0.1420641871    0.0187942513   -0.4188178237   -0.1489270479
6
energy=-0.1875973633 Properties=species:S:1:pos:R:3:forces:R:3 pbc="T T T" Lattice="200.000 0.000 0.000 0.000 200.000 0.000 0.000 0.000 200.000"
O    1.5129682801    0.0382124062   -0.0915385893    0.3578183967    0.0513295073   -0.0220703512
H    1.3846396631   -0.2348821051    0.8477783204   -0.0768276535   -0.0084100791   -0.1008438157
H    0.6407888785   -0.2542970473   -0.3688215457   -0.2387295174   -0.0077441633    0.1345252696
O   -1.4353108000   -0.0552242570    0.0211976679    0.0158302833   -0.0851816825   -0.0027269122
H   -1.6586961066   -0.1424281945    0.9503575649   -0.0624495293   -0.0158626792    0.0260751018
H   -1.5995117998    0.9016632188   -0.3126822236    0.0043580202    0.0658690968   -0.0349587781
6
energy=-0.1852797968 Properties=species:S:1:pos:R:3:forces:R:3 pbc="T T T" Lattice="200.000 0.000 0.000 0.000 200.000 0.000 0.000 0.000 200.000"
O   -0.5327946879   -0.0314769790    1.2061701089    0.0092595716    0.0379001203    0.4318733723
H   -0.0515949823    0.4355830655    1.8964395596    0.0634553450    0.0643480320    0.0248512566
H   -1.2367043131   -0.3556826838    1.7551640731   -0.1045004389   -0.0523111546   -0.1273986853
O    0.5397331746    0.0628488203   -1.3281038876    0.3197892070   -0.0132062153   -0.4262801941
H    1.0467566114   -0.7147701672   -1.3095602842   -0.0599900119    0.0732620474   -0.0155083812
H    0.1313971677    0.1368551892   -0.4063966353   -0.2280136728   -0.1099933441    0.1124626317
6
energy=-0.1916274512 Properties=species:S:1:pos:R:3:forces:R:3 pbc="T T T" Lattice="200.000 0.000 0.000 0.000 200.000 0.000 0.000 0.000 200.000"
O   -0.8228141554    1.3313976125    0.2129358748   -0.0199404492    0.2562495298    0.1225984354
H   -0.3576353714    1.8068225536    0.8865852045   -0.0718803364    0.0093829846   -0.0531344219
H   -0.3356889315    0.5498918297   -0.2018320531    0.1167255211   -0.3535616779   -0.0476502584
O    0.7036428532   -1.2918643545   -0.2290053902   -0.0144711981    0.1191295027   -0.0232196344
H    1.2259770139   -1.7367289253   -0.9408384728   -0.0147370502   -0.0055818654   -0.0610544486
H    1.3591408675   -1.2475590616    0.5111820230    0.0043024843   -0.0256184738    0.0624603280
6
energy=-0.1895188681 Properties=species:S:1:pos:R:3:forces:R:3 pbc="T T T" Lattice="200.000 0.000 0.000 0.000 200.000 0.000 0.000 0.000 200.000"
O   -0.0101487302   -0.0154726463   -1.5612209016    0.0116774372   -0.1119432689    0.0699463525
H   -0.7342415542   -0.5321318162   -1.9984249365   -0.0238140735   -0.0239549699   -0.0228026014
H    0.0514767499    0.8194938725   -2.0366036126    0.0080696650    0.0498557509    0.0586946900
O   -0.0036828604    0.0030119372    1.6581269214    0.0162956530   -0.0186178736    0.2014366917
H   -0.0073788638   -0.3265611370    0.7008095659    0.0306305827    0.1282080687   -0.2678328646
H    0.9097142683    0.2370075209    1.7958772639   -0.0428587502   -0.0235471929   -0.0394422681
6
energy=-0.1812793693 Properties=species:S:1:pos:R:3:forces:R:3 pbc="T T T" Lattice="200.000 0.000 0.000 0.000 200.000 0.000 0.000 0.000 200.000"
O   -0.0262562432   -0.0428316299   -1.5182098462   -0.0126164041   -0.0781774828    0.2079276992
H   -0.9550563367   -0.2676202290   -1.6075793932   -0.0788937921   -0.0115272848   -0.1225372431
H    0.0526354651    0.9380909618   -1.4475429462    0.0100535283    0.0962559389   -0.0397528574
O    0.0281876485    0.0170304514    1.5593189941   -0.0466629547    0.0930795978    0.2083267344
H   -0.1029770235   -0.2244315801    0.6632043837    0.1633375680   -0.0661256929   -0.2208094412
H    0.9747376610   -0.0364564512    1.7393277727   -0.0352179453   -0.0335045620   -0.0331554062
6
energy=-0.1691049952 Properties=species:S:1:pos:R:3:forces:R:3 pbc="T T T" Lattice="200.000 0.000 0.000 0.000 200.000 0.000 0.000 0.000 200.000"
O    1.0178788977   -0.3809595190   -0.7924667972    0.0178722536   -0.1191336165   -0.1736379222
H    1.1814841018   -0.5093094248   -1.7023077914    0.0073908937    0.0018203412   -0.0759287958
H    1.4160949386   -1.1091050545   -0.2730586163    0.0869547154   -0.0265903509    0.1043729121
O   -1.0458968412    0.4080303171    0.8825274419   -0.4308017364    0.0790876533    0.2827822880
H   -1.5686488250    1.2225739202    0.4205559963    0.0403822635   -0.0349196973    0.0454524793
H   -0.5841573167   -0.0338968115    0.1251361015    0.2782016102    0.0997356701   -0.1830414756
6
energy=-0.1755774682 Properties=species:S:1:pos:R:3:forces:R:3 pbc="T T T" Lattice="200.000 0.000 0.000 0.000 200.000 0.000 0.000 0.000 200.000"
O   -0.8787619617   -0.7982443382    0.7440788989   -0.1879198871   -0.0616200914    0.0795982745
H   -0.5216174535   -0.9344089391   -0.1193586156    0.2181447497    0.0665427259   -0.1054985412
H   -1.2074145094   -1.6262258331    1.1576869986   -0.0163023379    0.0451933121    0.0379458859
O    0.8906351848    0.7904266871   -0.7213635826    0.0293116067    0.0373879565   -0.1617702234
H    1.2905552068    1.4708548286   -1.2588145013    0.0104808457   -0.0290277568   -0.0424463452
H    0.2499944059    1.2138818198   -0.1401098361   -0.0537149770   -0.0584756320    0.1921709494
6
energy=-0.1818509444 Properties=species:S:1:pos:R:3:forces:R:3 pbc="T T T" Lattice="200.000 0.000 0.000 0.000 200.000 0.000 0.000 0.000 200.000"
O    0.1270469573    0.4944518798   -1.4070553443    0.0420195421    0.0383243523   -0.4242989018
H    0.2690604304    0.0219133578   -0.5306526559   -0.1689358884    0.1590577093    0.2537874413
H   -0.9115328957    0.3771160239   -1.4776157745    0.0793401357   -0.0121772597    0.0789380151
O   -0.0600027202   -0.4184930126    1.3124097014    0.0259809994   -0.2309478160    0.0673531376
H    0.1896360731   -1.4484870204    1.4179500553    0.0383001840   -0.0767124681    0.0538538166
H   -0.6114622675   -0.1563569707    2.0927775761   -0.0167049727    0.1224549678   -0.0296329946
6
energy=-0.1564708030 Properties=species:S:1:pos:R:3:forces:R:3 pbc="T T T" Lattice="200.000 0.000 0.000 0.000 200.000 0.000 0.000 0.000 200.000"
O    1.0060476155   -0.2531593419   -0.8677717965    0.4665770969   -0.1228324058   -0.4296858776
H    1.6670452299    0.3712976517   -1.2419260549   -0.0319181912   -0.1423666206   -0.0502743265
H    0.5105608200   -0.0276673328   -0.0131727543   -0.0231589563    0.4214691455    0.2874601534
O   -0.9530083815    0.2209595464    0.8410138325   -0.3523054368   -0.1589198982    0.2251345513
H   -1.7661127193    0.7187203178    1.3429414515    0.0969557932    0.1049976903    0.0793488774
H   -1.2534685413   -0.5511926213    0.3369286200   -0.1561497915   -0.1023479111   -0.1119838923
6
energy=-0.1514231726 Properties=species:S:1:pos:R:3:forces:R:3 pbc="T T T" Lattice="200.000 0.000 0.000 0.000 200.000 0.000 0.000 0.000 200.000"
O   -0.2735651305    1.0190130229    1.1512561357    0.0529637006   -0.0445181403   -0.0020054606
H   -0.4369381951    2.0297316807    1.0381403027   -0.0012372149   -0.0006263208   -0.0593189539
H   -0.3181132996    1.0041194354    2.1223458739    0.0117196033   -0.0274475567    0.0050049098
O    0.2783462355   -1.0582685204   -1.2538359959    0.0741377652   -0.1485151572   -0.1158719148
H    0.2418061428   -1.9242203095   -0.9995983624   -0.0106114578    0.0489142128   -0.0097635079
H    0.4373473502   -0.4864665325   -0.5324763005   -0.1269723964    0.1721924479    0.1819549274
6
energy=-0.1520580686 Properties=species:S:1:pos:R:3:forces:R:3 pbc="T T T" Lattice="200.000 0.000 0.000 0.000 200.000 0.000 0.000 0.000 200.000"
O    0.0774166554    1.1895200110   -1.0566530144    0.0101424885   -0.0039538427    0.0333040159
H    0.0924626835    1.6539167737   -1.9086439257   -0.0155623744    0.0319048215    0.0164689454
H    0.1934862188    0.2776747070   -1.3026722525   -0.0129609320   -0.1045384912    0.0397492578
O   -0.1125417102   -1.2195853725    1.1056062297    0.0191161534   -0.1048953603   -0.0940792428
H    0.8200845610   -1.0761621160    1.3561704894   -0.0072772509    0.0512081512    0.0250826559
H   -0.5484382049   -0.3781545771    1.0780342807    0.0065424296    0.1302742073   -0.0205261465
6
energy=-0.1578830196 Properties=species:S:1:pos:R:3:forces:R:3 pbc="T T T" Lattice="200.000 0.000 0.000 0.000 200.000 0.000 0.000 0.000 200.000"
O   -0.2896321409    0.8794477291    1.0807695060   -0.2946674703    0.1780962154    0.3908807289
H   -0.8244633720    0.3481020640    1.6077657797    0.0477021947    0.0918547241    0.0539504901
H    0.1942890752    0.2997892673    0.4649232347    0.2200072570   -0.1032513969   -0.3120897809
O    0.3351089827   -0.7675806395   -1.0855415624    0.0678020523   -0.0985745599    0.0920167037
H    0.5406483169   -1.7087107440   -0.8276527242    0.0693452285   -0.1116805021   -0.0821117851
H   -0.6323994809   -0.7150229073   -1.1692819311   -0.1101892621    0.0435555192   -0.1426463566
6
energy=-0.1451812616 Properties=species:S:1:pos:R:3:forces:R:3 pbc="T T T" Lattice="200.000 0.000 0.000 0.000 200.000 0.000 0.000 0.000 200.000"
O    1.1391633510   -0.7607155722   -0.2171574439    0.6543869408   -0.2179262059   -0.2738147937
H    0.3491420687   -0.2841418268    0.1715740932   -0.3859930614    0.0593446649    0.1712257131
H    1.6760199486   -0.0657351495   -0.5851737823    0.0519990226   -0.1105579584    0.0496485200
O   -1.1298903218    0.6334073985    0.2289573570   -0.0844509749    0.1976844234    0.1019715016
H   -1.0101769298    1.0098914522   -0.6602666883   -0.1392381020    0.0126338877   -0.1625569810
H   -1.1621904704    1.3609484650    0.8865477906   -0.0967043393    0.0588217025    0.1135260401
6
energy=-0.1206701975 Properties=species:S:1:pos:R:3:forces:R:3 pbc="T T T" Lattice="200.000 0.000 0.000 0.000 200.000 0.000 0.000 0.000 200.000"
O   -0.5724080919    1.4267664104   -0.5005668693   -0.2284636159    0.0996389967   -0.0986295815
H   -0.3991435417    1.0933174998    0.4308259106    0.1832795598   -0.0795874758   -0.0521481466
H   -0.1943867960    0.7476295676   -1.0576592694    0.1127387682    0.0036252557    0.1688669829
O    0.5638084255   -1.3246429201    0.5216183671   -0.0543628951    0.0892522533   -0.0647630081
H   -0.4103436841   -1.5228070555    0.2954654137   -0.0645172106   -0.0863726176    0.0223372317
H    1.1403900575   -1.9393068480   -0.0028155995    0.0513264220   -0.0265564123    0.0243360075
6
energy=-0.1211589956 Properties=species:S:1:pos:R:3:forces:R:3 pbc="T T T" Lattice="200.000 0.000 0.000 0.000 200.000 0.000 0.000 0.000 200.000"
O    0.2242083585    1.0337915874    1.1320570338   -0.0725416242   -0.1697822956   -0.1003717611
H   -0.3512517157    0.9151955432    1.9689790244   -0.0161326451    0.0549547631    0.0716530509
H    0.9878647274    0.4789389578    1.3275307508    0.0902328721    0.0262082849    0.0813548523
O   -0.2641148290   -1.0417065360   -1.2283975734    0.0317736952   -0.2531138122   -0.0758999994
H    0.5321099855   -0.5765505932   -1.4513188818   -0.0944839344    0.0750150256    0.0415875967
H   -0.5352248045   -0.6919374759   -0.3158259305    0.0611521506    0.2667180342   -0.0183242536
6
energy=-0.1203866004 Properties=species:S:1:pos:R:3:forces:R:3 pbc="T T T" Lattice="200.000 0.000 0.000 0.000 200.000 0.000 0.000 0.000 200.000"
O    0.5549621586   -1.3764273076    0.2272404451   -0.1207940350   -0.1262303760    0.0165635620
H    1.4329242132   -1.0154159562   -0.1285845245    0.0010376973    0.0710961499   -0.0294134224
H    0.5630230174   -0.8700094378    1.0125822070    0.0930178913    0.0000005142    0.0064647823
O   -0.5903931130    1.3582062766   -0.2998675237    0.0431318014    0.2057633444    0.0729360315
H   -0.6565423285    1.7375838306    0.6814401784   -0.0781713121    0.0558093978   -0.0367662637
H   -0.7769536176    0.4370926566   -0.4125139745    0.0617774429   -0.2064385161   -0.0297852039
6
energy=-0.1342443797 Properties=species:S:1:pos:R:3:forces:R:3 pbc="T T T" Lattice="200.000 0.000 0.000 0.000 200.000 0.000 0.000 0.000 200.000"
O    0.5867696880    1.1011255225   -0.7391817027    0.0795854189   -0.1917791133    0.0331687759
H    1.2872672972    1.7583248781   -0.5134684344    0.0095912439    0.0467961379    0.0449675692
H    0.8442858340    0.5895800251   -1.5876410194   -0.0201055140    0.0598038640   -0.1411823704
O   -0.7060433483   -1.0954595273    0.7922042288   -0.0123376965   -0.2830203722    0.0491744085
H   -0.2125517321   -1.8331410729    0.9073812787   -0.0395677379   -0.0026564640    0.0353120477
H   -0.0255829306   -0.6047090866    0.3520181960   -0.0171662286    0.3708549191   -0.0214409451
6
energy=-0.1251232591 Properties=species:S:1:pos:R:3:forces:R:3 pbc="T T T" Lattice="200.000 0.000 0.000 0.000 200.000 0.000 0.000 0.000 200.000"
O    0.3954879513    1.3223068956   -0.0928180679    0.1882057938    0.7824345726    0.0678601592
H    0.7812935245    0.9054306466   -0.8220228924   -0.1470115759   -0.1332628579    0.1431343521
H   -0.1271999334    0.5900972341    0.2521864960    0.1735330212   -0.1587172953   -0.3574018779
O   -0.3522601834   -1.2367133165    0.0622243369   -0.2056779838   -0.1989221526    0.1399698381
H   -0.0466408557   -1.4684262268    1.0296865770    0.0907748607   -0.1564876344    0.0791894690
H   -1.2936751077   -1.3858632029    0.0258122450   -0.0998246303   -0.1350446325   -0.0727514262
6
energy=-0.1204135124 Properties=species:S:1:pos:R:3:forces:R:3 pbc="T T T" Lattice="200.000 0.000 0.000 0.000 200.000 0.000 0.000 0.000 200.000"
O    1.2318178553   -0.0410306858   -0.5550958484    0.7178952505   -0.0550411521   -0.5775330621
H    0.2228815784   -0.0957772537   -0.2485847359   -0.1211915276   -0.2724937608    0.3430628345
H    1.2622556874   -0.7273987796   -1.2229068910    0.1163907634    0.0888547608    0.0304320935
O   -1.1202983560    0.0613752031    0.5685186714   -0.7229860351    0.2547516050    0.1440064703
H   -1.7736172021   -0.3617669242    1.0553312271    0.0656397544   -0.2032709168    0.0582915410
H   -1.4818445347    0.8619824257    0.2030788102   -0.0557476913    0.1871999782    0.0017406370
6
energy=-0.1390921425 Properties=species:S:1:pos:R:3:forces:R:3 pbc="T T T" Lattice="200.000 0.000 0.000 0.000 200.000 0.000 0.000 0.000 200.000"
O   -1.3470302800    0.5687322720   -0.0599247033   -0.3040823366    0.3088013397    0.1638913836
H   -1.3079124838    1.1535714237    0.7057761727   -0.1192832547   -0.0069718039   -0.0437992598
H   -0.5105733337    0.0410992970   -0.0357248887    0.2566351953   -0.3031752513   -0.2199393798
O    1.2808942294   -0.5936027945   -0.0491975869   -0.1491661605    0.0370166892    0.0899459370
H    1.3494485577   -1.1631457294    0.7442436136    0.0923283214   -0.1250924056    0.0412132441
H    1.5189188448    0.3632839428    0.3179749012    0.2235682351    0.0894214319   -0.0313124393
6
energy=-0.1031604869 Properties=species:S:1:pos:R:3:forces:R:3 pbc="T T T" Lattice="200.000 0.000 0.000 0.000 200.000 0.000 0.000 0.000 200.000"
O   -1.0135680444   -0.4307798200   -0.6769708198   -0.4035835221    0.1536758758   -0.0672312673
H   -1.0651206009   -1.4143769070   -0.7255607519    0.1461569412   -0.0108922222    0.0670142662
H   -1.9723436982   -0.2161802183   -0.4015519262   -0.1301302255   -0.0530675732   -0.0828080399
O    1.0893249920    0.4406463025    0.6409121723    0.5321160640    0.3022460546    0.4939403214
H    1.6527379997    0.8935374334    1.2528920867    0.0862420055   -0.0309329444   -0.0394191282
H    0.1821170772    0.5803934919    0.4466362359   -0.2308007488   -0.3610286763   -0.3714966665
6
energy=-0.0993711925 Properties=species:S:1:pos:R:3:forces:R:3 pbc="T T T" Lattice="200.000 0.000 0.000 0.000 200.000 0.000 0.000 0.000 200.000"
O    0.9727825392    0.9420991671    0.8280575542   -0.0600419481   -0.0860964811   -0.0703705845
H    1.4775400458    1.6535195266    0.3963169765    0.0193449816    0.0380764980    0.0120610458
H    1.4880329643    0.2833578946    1.2590505951    0.0594418526    0.0211144149    0.0375257676
O   -1.0719808352   -0.9810759298   -0.8595006807   -0.0904267333   -0.1858840875   -0.1371472808
H   -0.6844047193   -0.1836969508   -1.1634907857    0.0563308176    0.0172222787    0.2018059021
H   -0.7064376651   -1.1344409916    0.0072694319    0.0153520581    0.1955684054   -0.0438743360
6
energy=-0.1041097289 Properties=species:S:1:pos:R:3:forces:R:3 pbc="T T T" Lattice="200.000 0.000 0.000 0.000 200.000 0.000 0.000 0.000 200.000"
O    1.0776485114    0.7562234282    0.1412491783    0.1837989227    0.1855611569    0.2416652032
H    1.3473165676    1.3784716453   -0.5335218261    0.0007008828   -0.0547686152   -0.1169409796
H    0.7239814811    1.2382456569    0.9318688786    0.1113046068    0.1183602286    0.1094055898
O   -1.0718280397   -0.8729340868   -0.1714495078   -0.5601236070   -0.2747897561    0.0860466017
H   -0.2783404981   -0.4564708273    0.0792534605    0.2621162735    0.1172022037   -0.2783923861
H   -1.8853550546   -0.3075145645    0.0018168339    0.0022024071   -0.0915667606   -0.0417840290
6
energy=-0.1087719645 Properties=species:S:1:pos:R:3:forces:R:3 pbc="T T T" Lattice="200.000 0.000 0.000 0.000 200.000 0.000 0.000 0.000 200.000"
O    0.7172231924   -0.4879014981    1.1035414455   -0.1174680557   -0.0109765544   -0.1121726113
H    0.7919116330   -1.3604296678    0.9035605960    0.1046166527   -0.1375051784    0.0694141341
H   -0.1230050872   -0.5707295574    1.5779562080    0.0054913625   -0.0541829178    0.2271220142
O   -0.6491661354    0.5565454990   -1.1784007332   -0.3700758748    0.0434727297   -0.2669977703
H   -0.1866130078    0.1185117438   -0.4479105018    0.3553876755    0.1097516604    0.1751846980
H   -1.5626702812    0.7229532536   -0.8452470498    0.0220487539    0.0494402606   -0.0925514932
6
energy=-0.1171121727 Properties=species:S:1:pos:R:3:forces:R:3 pbc="T T T" Lattice="200.000 0.000 0.000 0.000 200.000 0.000 0.000 0.000 200.000"
O   -1.0101299716   -0.6766981862    1.3420011751    0.0447305135   -0.0108222882    0.0630568239
H   -0.7848153743   -1.0351011670    0.4280705673   -0.0015971694    0.0646822755   -0.0783687728
H   -1.9120437574   -0.2576666893    1.0129498762    0.0187896233    0.0113791892   -0.0345474015
O    1.0028411114    0.6967387054   -1.3157824010   -0.0717630941   -0.0867701102   -0.0255361985
H    1.6535706892    0.0065019266   -1.4909648145    0.0414801246    0.0199646175   -0.0062570371
H    1.1589959875    0.9681312376   -0.3662674817   -0.0316405121    0.0015663162    0.0816520718
6
energy=-0.0876865418 Properties=species:S:1:pos:R:3:forces:R:3 pbc="T T T" Lattice="200.000 0.000 0.000 0.000 200.000 0.000 0.000 0.000 200.000"
O   -1.0860392325    1.3596125433   -0.1299559210   -0.0161722401    0.1194190090    0.0454154554
H   -0.2306929963    1.3439989749    0.1488984029   -0.0860265471   -0.0710293012   -0.0473514962
H   -1.1822156830    0.3392702056   -0.0665147065    0.1115293212   -0.1022044436   -0.0272773497
O    0.9920510677   -1.3050255087    0.0676423074   -0.1294231721    0.1372598951    0.0146630024
H    1.3743023344   -2.0284366511    0.4383485138   -0.0090050324   -0.0263795204    0.0069219244
H    1.5306283613   -0.5213784131    0.4684698187    0.1290971562   -0.0570656389    0.0076284636
6
energy=-0.0977251214 Properties=species:S:1:pos:R:3:forces:R:3 pbc="T T T" Lattice="200.000 0.000 0.000 0.000 200.000 0.000 0.000 0.000 200.000"
O   -0.2322647199    1.5491938202   -0.3638136892   -0.1024044754    0.2825529456   -0.0140793620
H    0.3090550951    1.0207737384   -0.9462967862   -0.0278825874   -0.1558890816    0.1502902469
H   -0.1568319271    1.2301341993    0.4805763938    0.1130293029   -0.1122625999   -0.1291784031
O    0.2289661756   -1.4521981770    0.3341959796    0.0527379577    0.0292185327    0.0073327868
H   -0.5232047469   -1.4975295132    0.9437679638   -0.0504872139   -0.0258694135   -0.0235189108
H    0.4233445618   -2.2931428771   -0.0078790679    0.0150075303   -0.0177508975    0.0091531279
6
energy=-0.0940533530 Properties=species:S:1:pos:R:3:forces:R:3 pbc="T T T" Lattice="200.000 0.000 0.000 0.000 200.000 0.000 0.000 0.000 200.000"
O    0.2614466462   -0.3553375195   -1.9454969902    0.0265214453    0.0038612830   -0.0743676218
H    0.6526141316   -1.0843397347   -2.3628359103   -0.0149057146    0.0101270619    0.0157582924
H    0.3918506319   -0.3398052335   -1.0386039390   -0.0399899131    0.0051936288    0.1422082406
O   -0.2874893443    0.3311154543    1.8945914103    0.0476718557   -0.0315618363   -0.0810483768
H   -0.9837450114    0.9888667132    1.7648082887   -0.0273935636    0.0055746663   -0.0134124177
H    0.3526969681    0.8197932064    2.4447359223    0.0080964045    0.0068046821    0.0108623974
6
energy=-0.0926735180 Properties=species:S:1:pos:R:3:forces:R:3 pbc="T T T" Lattice="200.000 0.000 0.000 0.000 200.000 0.000 0.000 0.000 200.000"
O   -0.2083051167   -1.1360860210   -1.4083518201   -0.0300119752   -0.0109055920   -0.0088435671
H    0.0837100578   -1.2978456508   -2.3535951478   -0.0092863111    0.0110747706    0.0017750898
H    0.6887805249   -0.9378083639   -1.0481231977    0.0096488367    0.0545953228    0.0787811778
O    0.1934813148    1.1303689855    1.4076070092    0.0478415485    0.0060888870    0.0100293600
H    0.1205242781    1.3791922439    2.3382853427    0.0065342021   -0.0067378334   -0.0024672308
H   -0.6576933308    0.9472172708    1.0752565576   -0.0247257867   -0.0541155549   -0.0792743154
6
energy=-0.0957822556 Properties=species:S:1:pos:R:3:forces:R:3 pbc="T T T" Lattice="200.000 0.000 0.000 0.000 200.000 0.000 0.000 0.000 200.000"
O    1.2019888140   -0.0807965717    1.0373828804    0.1158986543   -0.1254986399    0.0741238812
H    0.4117777503    0.4370587786    0.8448036660   -0.1278460573    0.0477932118   -0.1372182432
H    1.4309963775   -0.6575818040    0.3538391970    0.0295116385    0.0917313112    0.0473232141
O   -1.1696057468    0.1160717824   -0.9324586884    0.0805490685   -0.0076701155    0.0411700495
H   -1.6414556245    0.3551512003   -1.7631589804   -0.0214229474    0.0467287750    0.0005270762
H   -0.7153858795   -0.6946070948   -1.1011106641   -0.0766898424   -0.0530840283   -0.0259259778
6
energy=-0.0797152655 Properties=species:S:1:pos:R:3:forces:R:3 pbc="T T T" Lattice="200.000 0.000 0.000 0.000 200.000 0.000 0.000 0.000 200.000"
O    0.3251520666    1.0798380349   -1.6892477855   -0.0290539821    0.0583470768   -0.0704909122
H    0.1985630437    0.8651632020   -0.7734788158    0.0224580736   -0.1054460907    0.1012130261
H   -0.4818068859    0.8411783748   -2.2070342878    0.0230113750   -0.0093176785    0.0227604353
O   -0.2458746399   -1.0137215030    1.6308745113   -0.0417398060    0.0663262390   -0.0621728786
H    0.2473176150   -1.6974902437    2.0912844333    0.0326190740    0.0025603047   -0.0156868158
H   -1.2225690975   -1.0584230689    1.8158794927   -0.0072947344   -0.0124703655    0.0243771451
6
energy=-0.0790943289 Properties=species:S:1:pos:R:3:forces:R:3 pbc="T T T" Lattice="200.000 0.000 0.000 0.000 200.000 0.000 0.000 0.000 200.000"
O    0.3760572422    1.0254057125   -1.6611663363    0.0042572329   -0.0735582385    0.0313983141
H    1.0821106652    1.4426002019   -1.0792950432    0.0015961410    0.0210367676    0.0166705199
H   -0.2301890369    1.7057844447   -1.9154385486   -0.0184975460    0.0017118406    0.0069028983
O   -0.4243105092   -1.0632310763    1.6732145386    0.0279926306    0.0004057201    0.0624073632
H   -0.3897653564   -1.0008617773    0.7467704005    0.0019962046    0.0572049927   -0.1055201385
H    0.3038437536   -1.5470613562    2.0567031202   -0.0173446632   -0.0068010826   -0.0118584429
6
energy=-0.0679446540 Properties=species:S:1:pos:R:3:forces:R:3 pbc="T T T" Lattice="200.000 0.000 0.000 0.000 200.000 0.000 0.000 0.000 200.000"
O    0.7853648680    0.8770124685   -1.2223172342    0.1680725119   -0.0770832212   -0.0997325848
H    0.9394830286    1.2381476751   -0.3123302457   -0.1218368746    0.0045112579    0.0191305516
H    0.1906464310    0.1208571060   -1.1729600076   -0.0995376952    0.1238762737    0.0979472106
O   -0.7747334758   -0.7963160593    1.1945675371    0.0510230318    0.0635808148   -0.1281453337
H    0.0643118691   -1.1501024901    0.9978574832    0.0451681153   -0.0832682674    0.0764029072
H   -1.3632101439   -1.4899233569    0.9279473727   -0.0428885750   -0.0316173721    0.0343967349
6
energy=-0.0583340006 Properties=species:S:1:pos:R:3:forces:R:3 pbc="T T T" Lattice="200.000 0.000 0.000 0.000 200.000 0.000 0.000 0.000 200.000"
O   -1.2103228219   -0.5211466650    0.2643043370   -0.8094054468   -0.2509993368    0.2598860984
H   -0.4593421130   -0.3466450807   -0.3243442310    0.2561713683    0.1639386919    0.1410625570
H   -1.4555761730    0.1528618325    0.9670096970   -0.0580390586   -0.0906925854   -0.0976803301
O    1.1387611253    0.4384263847   -0.2742002973    0.5772569256    0.1963351084   -0.3331440320
H    1.8350768902    0.4780273473   -0.9781705537    0.0882356391    0.0034149395   -0.0713995401
H    1.2158527962    1.0289050580    0.4925992351   -0.0542183991   -0.0219968176    0.1012757610
6
energy=-0.0652228351 Properties=species:S:1:pos:R:3:forces:R:3 pbc="T T T" Lattice="200.000 0.000 0.000 0.000 200.000 0.000 0.000 0.000 200.000"
O   -1.7991190825   -0.4988876916   -0.1347490409   -0.1447500334    0.0119833985    0.0680401365
H   -1.6972597067    0.3423865259   -0.5953989750    0.0806411140   -0.0447546818    0.0062035582
H   -1.0093582888   -0.5614970767    0.4299018811    0.1145621947    0.0229332135   -0.1270757547
O    1.7367488759    0.3981668776    0.0885294855   -0.1480096782   -0.0226215957    0.0337303049
H    1.7331301988    0.5989048841    1.1384243155    0.0718906208    0.0211195572    0.0355028235
H    1.9635882168    1.2191056159   -0.2392114981    0.0256662963    0.0113406227   -0.0164015825
6
energy=-0.0599417581 Properties=species:S:1:pos:R:3:forces:R:3 pbc="T T T" Lattice="200.000 0.000 0.000 0.000 200.000 0.000 0.000 0.000 200.000"
O    1.2524630662   -0.3005538697    0.4351159656    0.7769822909   -0.2326406304    0.1283340527
H    0.9105151539    0.5829654743    0.2836561182   -0.1990064848   -0.3193624038    0.0654772606
H    0.3494517755   -0.7531273872    0.4872676513    0.0524628497    0.3654386328    0.1024800659
O   -1.1706363919    0.2501552172   -0.3749083340   -0.4660212244    0.1822794006   -0.2139337966