
                                 *****************
                                 * O   R   C   A *
                                 *****************

           --- An Ab Initio, DFT and Semiempirical electronic structure package ---

                  #######################################################
                  #                        -***-                        #
                  #          Department of theory and spectroscopy      #
                  #               Directorship: Frank Neese             #
                  #        Max Planck Institute fuer Kohlenforschung    #
                  #                Kaiser Wilhelm Platz 1               #
                  #                 D-45470 Muelheim/Ruhr               #
                  #                      Germany                        #
                  #                                                     #
                  #                  All rights reserved                #
                  #                        -***-                        #
                  #######################################################


                         Program Version 4.2.0 -  RELEASE  -


 With contributions from (in alphabetic order):
   Daniel Aravena         : Magnetic Suceptibility
   Michael Atanasov       : Ab Initio Ligand Field Theory (pilot matlab implementation)
   Alexander A. Auer      : GIAO ZORA, VPT2
   Ute Becker             : Parallelization
   Giovanni Bistoni       : ED, misc. LED, open-shell LED, HFLED
   Martin Brehm           : Molecular dynamics
   Dmytro Bykov           : SCF Hessian
   Vijay G. Chilkuri      : MRCI spin determinant printing, contributions to CSF-ICE
   Dipayan Datta          : RHF DLPNO-CCSD density
   Achintya Kumar Dutta   : EOM-CC, STEOM-CC
   Dmitry Ganyushin       : Spin-Orbit,Spin-Spin,Magnetic field MRCI
   Miquel Garcia          : C-PCM Hessian, Gaussian charge scheme
   Yang Guo               : DLPNO-NEVPT2, CIM, IAO-localization
   Andreas Hansen         : Spin unrestricted coupled pair/coupled cluster methods
   Benjamin Helmich-Paris : CASSCF linear response (MC-RPA)
   Lee Huntington         : MR-EOM, pCC
   Robert Izsak           : Overlap fitted RIJCOSX, COSX-SCS-MP3, EOM
   Christian Kollmar      : KDIIS, OOCD, Brueckner-CCSD(T), CCSD density
   Simone Kossmann        : Meta GGA functionals, TD-DFT gradient, OOMP2, MP2 Hessian
   Martin Krupicka        : AUTO-CI
   Lucas Lang             : DCDCAS
   Dagmar Lenk            : GEPOL surface, SMD
   Dimitrios Liakos       : Extrapolation schemes; Compound Job, initial MDCI parallelization
   Dimitrios Manganas     : Further ROCIS development; embedding schemes
   Dimitrios Pantazis     : SARC Basis sets
   Taras Petrenko         : DFT Hessian,TD-DFT gradient, ASA, ECA, R-Raman, ABS, FL, XAS/XES, NRVS
   Peter Pinski           : DLPNO-MP2, DLPNO-MP2 Gradient
   Christoph Reimann      : Effective Core Potentials
   Marius Retegan         : Local ZFS, SOC
   Christoph Riplinger    : Optimizer, TS searches, QM/MM, DLPNO-CCSD(T), (RO)-DLPNO pert. Triples
   Tobias Risthaus        : Range-separated hybrids, TD-DFT gradient, RPA, STAB
   Michael Roemelt        : Original ROCIS implementation
   Masaaki Saitow         : Open-shell DLPNO-CCSD energy and density
   Barbara Sandhoefer     : DKH picture change effects
   Avijit Sen             : IP-ROCIS
   Kantharuban Sivalingam : CASSCF convergence, NEVPT2, FIC-MRCI
   Bernardo de Souza      : ESD, SOC TD-DFT
   Georgi Stoychev        : AutoAux, RI-MP2 NMR
   Willem Van den Heuvel  : Paramagnetic NMR
   Boris Wezisla          : Elementary symmetry handling
   Frank Wennmohs         : Technical directorship


 We gratefully acknowledge several colleagues who have allowed us to
 interface, adapt or use parts of their codes:
   Stefan Grimme, W. Hujo, H. Kruse,             : VdW corrections, initial TS optimization,
                  C. Bannwarth                     DFT functionals, gCP, sTDA/sTD-DF
   Ed Valeev, F. Pavosevic, A. Kumar             : LibInt (2-el integral package), F12 methods
   Garnet Chan, S. Sharma, J. Yang, R. Olivares  : DMRG
   Ulf Ekstrom                                   : XCFun DFT Library
   Mihaly Kallay                                 : mrcc  (arbitrary order and MRCC methods)
   Andreas Klamt, Michael Diedenhofen            : otool_cosmo (COSMO solvation model)
   Jiri Pittner, Ondrej Demel                    : Mk-CCSD
   Frank Weinhold                                : gennbo (NPA and NBO analysis)
   Christopher J. Cramer and Donald G. Truhlar   : smd solvation model
   Lars Goerigk                                  : TD-DFT with DH, B97 family of functionals
   V. Asgeirsson, H. Jonsson                     : NEB implementation
   FAccTs GmbH                                   : IRC, NEB, NEB-TS, Multilevel, MM, QM/MM, CI optimization
   S Lehtola, MJT Oliveira, MAL Marques          : LibXC Library


 Your calculation uses the libint2 library for the computation of 2-el integrals
 For citations please refer to: http://libint.valeyev.net

 Your ORCA version has been built with support for libXC version: 4.2.3
 For citations please refer to: https://tddft.org/programs/libxc/

 This ORCA versions uses:
   CBLAS   interface :  Fast vector & matrix operations
   LAPACKE interface :  Fast linear algebra routines
   SCALAPACK package :  Parallel linear algebra routines


----- Orbital basis set information -----
Your calculation utilizes the basis: def2-TZVP
   F. Weigend and R. Ahlrichs, Phys. Chem. Chem. Phys. 7, 3297 (2005).

================================================================================
                                        WARNINGS
                       Please study these warnings very carefully!
================================================================================


WARNING: The frozen-core approximation for MP2-gradient calculations is turned on by default.

INFO   : the flag for use of LIBINT has been found!

================================================================================
                                       INPUT FILE
================================================================================
NAME = orcacalc.inp
|  1> ! engrad MP2 def2-TZVP TightSCF FrozenCore 
|  2> %pal nprocs 24 end
|  3> 
|  4> %maxcore 8000
|  5> 
|  6> %scf    ConvForced true end 
|  7> *xyz 0 1 
|  8> C   1.8909313247172832 0.2578068453645528 -3.071794534151466
|  9> H   0.8404315285798192 0.6631000676189016 -3.0744625801327667
| 10> H   2.3050570188496597 0.5929560859405967 -4.006908270721022
| 11> H   2.3965990190046638 0.8113430330813196 -2.2360722366059065
| 12> C   1.9186020580823016 -1.1464929780003268 -2.856245423303161
| 13> N   2.042326401852066 -2.30041429530257 -2.9993049403138863
| 14> C   -2.59417950692662 -3.311437430603188 1.7367310833069791
| 15> H   -1.5724389597306998 -3.3875054453469526 1.7782582251424297
| 16> H   -2.935950208617371 -3.5939597513300696 0.773826308689426
| 17> H   -2.8378616518623803 -4.05420370702159 2.5367390601454978
| 18> C   -2.9509099779245864 -2.007265312481855 2.0881956736981877
| 19> N   -3.213831414153288 -0.8776113590017275 2.3920314591627725
| 20> C   0.6961480470026257 1.1525503294508619 2.1398207991130738
| 21> H   1.6265944263138894 1.6659720620681 2.386963356957975
| 22> H   0.5315493380909483 1.0213783602092146 1.0777554376234595
| 23> H   0.5310666938535278 0.18843138239525944 2.6556781034010157
| 24> C   -0.4161287672133964 2.0536151866417383 2.6067465058976125
| 25> N   -1.3331975184004732 2.7653505104061646 2.8065873143673974
| 26> C   2.003294647719538 -4.704424568917471 -0.2220954128202764
| 27> H   1.4345352751744065 -5.477021277671069 -0.8483189649087234
| 28> H   2.8246885257248886 -5.092456963488834 0.4001574265197108
| 29> H   2.4776560269115953 -3.9607788872567786 -0.8843623662567914
| 30> C   1.108996427097889 -4.003839070845174 0.6472456823495024
| 31> N   0.34642277204309124 -3.4427620288384078 1.3696177317863745
| 32> C   1.3147072995590636 4.012138165175447 -0.7064071334700848
| 33> H   0.6406567576086701 4.805941576883253 -1.1105658630017585
| 34> H   1.9320093426778921 4.5246944422795545 0.07321230968576639
| 35> H   0.8143207989084129 3.0876613261440906 -0.2822488312594384
| 36> C   2.149722745113194 3.604154261499011 -1.8009813396288847
| 37> N   2.6309252235935445 3.1842297150662793 -2.768436457988752
| 38> C   -3.082192236010399 1.6606489576238412 0.14382991703504616
| 39> H   -3.872121632638653 2.1649654326635925 -0.4342643021756403
| 40> H   -2.935124118243576 2.2053167903329753 1.1513193102346588
| 41> H   -3.3889775631975443 0.6424600177209148 0.3057250380663279
| 42> C   -1.8082361526488493 1.5803102086701963 -0.5259260815017843
| 43> N   -0.7451753624995943 1.4877171761021653 -1.0133363422036674
| 44> *
| 45> 
| 46>                          ****END OF INPUT****
================================================================================

                     *******************************
                     * Energy+Gradient Calculation *
                     *******************************

---------------------------------
CARTESIAN COORDINATES (ANGSTROEM)
---------------------------------
  C      1.890931    0.257807   -3.071795
  H      0.840432    0.663100   -3.074463
  H      2.305057    0.592956   -4.006908
  H      2.396599    0.811343   -2.236072
  C      1.918602   -1.146493   -2.856245
  N      2.042326   -2.300414   -2.999305
  C     -2.594180   -3.311437    1.736731
  H     -1.572439   -3.387505    1.778258
  H     -2.935950   -3.593960    0.773826
  H     -2.837862   -4.054204    2.536739
  C     -2.950910   -2.007265    2.088196
  N     -3.213831   -0.877611    2.392031
  C      0.696148    1.152550    2.139821
  H      1.626594    1.665972    2.386963
  H      0.531549    1.021378    1.077755
  H      0.531067    0.188431    2.655678
  C     -0.416129    2.053615    2.606747
  N     -1.333198    2.765351    2.806587
  C      2.003295   -4.704425   -0.222095
  H      1.434535   -5.477021   -0.848319
  H      2.824689   -5.092457    0.400157
  H      2.477656   -3.960779   -0.884362
  C      1.108996   -4.003839    0.647246
  N      0.346423   -3.442762    1.369618
  C      1.314707    4.012138   -0.706407
  H      0.640657    4.805942   -1.110566
  H      1.932009    4.524694    0.073212
  H      0.814321    3.087661   -0.282249
  C      2.149723    3.604154   -1.800981
  N      2.630925    3.184230   -2.768436
  C     -3.082192    1.660649    0.143830
  H     -3.872122    2.164965   -0.434264
  H     -2.935124    2.205317    1.151319
  H     -3.388978    0.642460    0.305725
  C     -1.808236    1.580310   -0.525926
  N     -0.745175    1.487717   -1.013336

----------------------------
CARTESIAN COORDINATES (A.U.)
----------------------------
  NO LB      ZA    FRAG     MASS         X           Y           Z
   0 C     6.0000    0    12.011    3.573342    0.487184   -5.804850
   1 H     1.0000    0     1.008    1.588185    1.253078   -5.809892
   2 H     1.0000    0     1.008    4.355926    1.120525   -7.571959
   3 H     1.0000    0     1.008    4.528916    1.533216   -4.225564
   4 C     6.0000    0    12.011    3.625632   -2.166558   -5.397522
   5 N     7.0000    0    14.007    3.859438   -4.347153   -5.667865
   6 C     6.0000    0    12.011   -4.902289   -6.257710    3.281946
   7 H     1.0000    0     1.008   -2.971479   -6.401458    3.360421
   8 H     1.0000    0     1.008   -5.548142   -6.791600    1.462320
   9 H     1.0000    0     1.008   -5.362781   -7.661335    4.793742
  10 C     6.0000    0    12.011   -5.576412   -3.793182    3.946118
  11 N     7.0000    0    14.007   -6.073261   -1.658445    4.520284
  12 C     6.0000    0    12.011    1.315529    2.178004    4.043675
  13 H     1.0000    0     1.008    3.073818    3.148231    4.510707
  14 H     1.0000    0     1.008    1.004483    1.930125    2.036663
  15 H     1.0000    0     1.008    1.003571    0.356084    5.018504
  16 C     6.0000    0    12.011   -0.786369    3.880770    4.926037
  17 N     7.0000    0    14.007   -2.519378    5.225755    5.303681
  18 C     6.0000    0    12.011    3.785678   -8.890074   -0.419700
  19 H     1.0000    0     1.008    2.710879  -10.350070   -1.603091
  20 H     1.0000    0     1.008    5.337888   -9.623349    0.756188
  21 H     1.0000    0     1.008    4.682091   -7.484787   -1.671203
  22 C     6.0000    0    12.011    2.095700   -7.566159    1.223117
  23 N     7.0000    0    14.007    0.654644   -6.505877    2.588202
  24 C     6.0000    0    12.011    2.484437    7.581842   -1.334916
  25 H     1.0000    0     1.008    1.210666    9.081913   -2.098665
  26 H     1.0000    0     1.008    3.650969    8.550433    0.138351
  27 H     1.0000    0     1.008    1.538843    5.834834   -0.533373
  28 C     6.0000    0    12.011    4.062387    6.810864   -3.403362
  29 N     7.0000    0    14.007    4.971728    6.017322   -5.231587
  30 C     6.0000    0    12.011   -5.824499    3.138172    0.271799
  31 H     1.0000    0     1.008   -7.317249    4.091192   -0.820641
  32 H     1.0000    0     1.008   -5.546581    4.167445    2.175678
  33 H     1.0000    0     1.008   -6.404239    1.214073    0.577737
  34 C     6.0000    0    12.011   -3.417071    2.986354   -0.993856
  35 N     7.0000    0    14.007   -1.408177    2.811378   -1.914928

--------------------------------
INTERNAL COORDINATES (ANGSTROEM)
--------------------------------
 C      0   0   0     0.000000000000     0.00000000     0.00000000
 H      1   0   0     1.125974926968     0.00000000     0.00000000
 H      1   2   0     1.076226186413   104.17297809     0.00000000
 H      1   2   3     1.122735002916   104.15224830   113.82676759
 C      1   2   3     1.421015511026   111.97742436   234.37671738
 N      5   1   2     1.169319522275   163.48101213   111.08133129
 C      6   5   1     6.704430776680    89.38210999   207.12311968
 H      7   6   5     1.025409475361    49.51196063   257.33958912
 H      7   6   5     1.060099843988    67.75959024   111.28152660
 H      7   6   5     1.118523800440   139.11703548   212.34810345
 C      7   6   5     1.397014280858   102.32943840     0.95132054
 N     11   7   6     1.198983703297   177.87252923   313.15257594
 C     12  11   7     4.412834246260   102.98371781     9.59119702
 H     13  12  11     1.091059936115   163.56826576   249.11611280
 H     13  12  11     1.082719563214    82.27765880    71.94948850
 H     13  12  11     1.105841740764    55.94214973   312.42864500
 C     13  12  11     1.505688282469    66.61273021   182.39633006
 N     17  13  12     1.177929800212   171.62131107   282.45101350
 C      6   5   1     3.673374692715   123.51826058   167.92520190
 H     19   6   5     1.145665237068    91.91149586   142.53984971
 H     19   6   5     1.101115633405   130.53737512   270.12212151
 H     19   6   5     1.103007314362    25.87701664   277.82237829
 C     19   6   5     1.430504556884    98.37133999    31.37882956
 N     23  19   6     1.190859943175   178.62270020   118.99248250
 C     15  13  12     3.569484092093   110.82041007   135.11048733
 H     25  15  13     1.117055176882   130.08029928   259.38899242
 H     25  15  13     1.118741357859    99.01039445    17.86848498
 H     25  15  13     1.133558265495    14.71334049   233.06577991
 C     25  15  13     1.435894965783   105.69685075   131.61511989
 N     29  25  15     1.159250557918   168.66342153    71.33546163
 C     18  17  13     3.371887453637    94.12297839    27.50507731
 H     31  18  17     1.101143262677   129.54147285   204.41312510
 H     31  18  17     1.154697777196    24.54706757   164.49083843
 H     31  18  17     1.075656071675   109.82810715    68.17996638
 C     31  18  17     1.441524024945    85.79989787   323.08102880
 N     35  31  18     1.173132761230   176.63161338    42.85159628

---------------------------
INTERNAL COORDINATES (A.U.)
---------------------------
 C      0   0   0     0.000000000000     0.00000000     0.00000000
 H      1   0   0     2.127784245631     0.00000000     0.00000000
 H      1   2   0     2.033772750474   104.17297809     0.00000000
 H      1   2   3     2.121661676478   104.15224830   113.82676759
 C      1   2   3     2.685330147892   111.97742436   234.37671738
 N      5   1   2     2.209693660147   163.48101213   111.08133129
 C      6   5   1    12.669538051757    89.38210999   207.12311968
 H      7   6   5     1.937743083560    49.51196063   257.33958912
 H      7   6   5     2.003298379751    67.75959024   111.28152660
 H      7   6   5     2.113703657104   139.11703548   212.34810345
 C      7   6   5     2.639974395999   102.32943840     0.95132054
 N     11   7   6     2.265750838265   177.87252923   313.15257594
 C     12  11   7     8.339048199820   102.98371781     9.59119702
 H     13  12  11     2.061804474951   163.56826576   249.11611280
 H     13  12  11     2.046043454313    82.27765880    71.94948850
 H     13  12  11     2.089738037503    55.94214973   312.42864500
 C     13  12  11     2.845338496920    66.61273021   182.39633006
 N     17  13  12     2.225964727385   171.62131107   282.45101350
 C      6   5   1     6.941672156508   123.51826058   167.92520190
 H     19   6   5     2.164993539212    91.91149586   142.53984971
 H     19   6   5     2.080806988914   130.53737512   270.12212151
 H     19   6   5     2.084381747856    25.87701664   277.82237829
 C     19   6   5     2.703261845838    98.37133999    31.37882956
 N     23  19   6     2.250399156457   178.62270020   118.99248250
 C     15  13  12     6.745347373444   110.82041007   135.11048733
 H     25  15  13     2.110928360786   130.08029928   259.38899242
 H     25  15  13     2.114114781045    99.01039445    17.86848498
 H     25  15  13     2.142114678629    14.71334049   233.06577991
 C     25  15  13     2.713448242406   105.69685075   131.61511989
 N     29  25  15     2.190666075060   168.66342153    71.33546163
 C     18  17  13     6.371943841779    94.12297839    27.50507731
 H     31  18  17     2.080859200672   129.54147285   204.41312510
 H     31  18  17     2.182062566348    24.54706757   164.49083843
 H     31  18  17     2.032695389756   109.82810715    68.17996638
 C     31  18  17     2.724085622614    85.79989787   323.08102880
 N     35  31  18     2.216899637455   176.63161338    42.85159628

---------------------
BASIS SET INFORMATION
---------------------
There are 3 groups of distinct atoms

 Group   1 Type C   : 11s6p2d1f contracted to 5s3p2d1f pattern {62111/411/11/1}
 Group   2 Type H   : 5s1p contracted to 3s1p pattern {311/1}
 Group   3 Type N   : 11s6p2d1f contracted to 5s3p2d1f pattern {62111/411/11/1}

Atom   0C    basis set group =>   1
Atom   1H    basis set group =>   2
Atom   2H    basis set group =>   2
Atom   3H    basis set group =>   2
Atom   4C    basis set group =>   1
Atom   5N    basis set group =>   3
Atom   6C    basis set group =>   1
Atom   7H    basis set group =>   2
Atom   8H    basis set group =>   2
Atom   9H    basis set group =>   2
Atom  10C    basis set group =>   1
Atom  11N    basis set group =>   3
Atom  12C    basis set group =>   1
Atom  13H    basis set group =>   2
Atom  14H    basis set group =>   2
Atom  15H    basis set group =>   2
Atom  16C    basis set group =>   1
Atom  17N    basis set group =>   3
Atom  18C    basis set group =>   1
Atom  19H    basis set group =>   2
Atom  20H    basis set group =>   2
Atom  21H    basis set group =>   2
Atom  22C    basis set group =>   1
Atom  23N    basis set group =>   3
Atom  24C    basis set group =>   1
Atom  25H    basis set group =>   2
Atom  26H    basis set group =>   2
Atom  27H    basis set group =>   2
Atom  28C    basis set group =>   1
Atom  29N    basis set group =>   3
Atom  30C    basis set group =>   1
Atom  31H    basis set group =>   2
Atom  32H    basis set group =>   2
Atom  33H    basis set group =>   2
Atom  34C    basis set group =>   1
Atom  35N    basis set group =>   3

Checking for AutoStart:
The File: orcacalc.gbw exists
Trying to determine its content:
     ... Fine, the file contains calculation information
     ... Fine, the calculation information was read
     ... Fine, the file contains a basis set
     ... Fine, the basis set was read
     ... Fine, the file contains a geometry
     ... Fine, the geometry was read
     ... Fine, the file contains a set of orbitals
     ... Fine, the orbitals can be read
     => possible old guess file was deleted
     => GBW file was renamed to GES file
     => GES file is set as startup file
     => Guess is set to MORead
     ... now leaving AutoStart



           ************************************************************
           *        Program running with 24 parallel MPI-processes    *
           *              working on a common directory               *
           ************************************************************
------------------------------------------------------------------------------
                           ORCA GTO INTEGRAL CALCULATION
------------------------------------------------------------------------------

                         BASIS SET STATISTICS AND STARTUP INFO

 # of primitive gaussian shells          ...  468
 # of primitive gaussian functions       ...  972
 # of contracted shells                  ...  270
 # of contracted basis functions         ...  666
 Highest angular momentum                ...    3
 Maximum contraction depth               ...    6
 Integral package used                   ... LIBINT
 Integral threshhold            Thresh   ...  2.500e-11
 Primitive cut-off              TCut     ...  2.500e-12


------------------------------ INTEGRAL EVALUATION ----------------------------


 * One electron integrals 
 Pre-screening matrix                    ... done
 Shell pair data                         ... done (   0.006 sec)



           ************************************************************
           *        Program running with 24 parallel MPI-processes    *
           *              working on a common directory               *
           ************************************************************
-------------------------------------------------------------------------------
                                 ORCA SCF
-------------------------------------------------------------------------------

------------
SCF SETTINGS
------------
Hamiltonian:
 Ab initio Hamiltonian  Method          .... Hartree-Fock(GTOs)


General Settings:
 Integral files         IntName         .... orcacalc
 Hartree-Fock type      HFTyp           .... RHF
 Total Charge           Charge          ....    0
 Multiplicity           Mult            ....    1
 Number of Electrons    NEL             ....  132
 Basis Dimension        Dim             ....  666
 Nuclear Repulsion      ENuc            ....   1061.7174424726 Eh

Convergence Acceleration:
 DIIS                   CNVDIIS         .... on
   Start iteration      DIISMaxIt       ....    12
   Startup error        DIISStart       ....  0.200000
   # of expansion vecs  DIISMaxEq       ....     5
   Bias factor          DIISBfac        ....   1.050
   Max. coefficient     DIISMaxC        ....  10.000
 Newton-Raphson         CNVNR           .... off
 SOSCF                  CNVSOSCF        .... on
   Start iteration      SOSCFMaxIt      ....   150
   Startup grad/error   SOSCFStart      ....  0.003300
 Level Shifting         CNVShift        .... on
   Level shift para.    LevelShift      ....    0.2500
   Turn off err/grad.   ShiftErr        ....    0.0010
 Zerner damping         CNVZerner       .... off
 Static damping         CNVDamp         .... on
   Fraction old density DampFac         ....    0.7000
   Max. Damping (<1)    DampMax         ....    0.9800
   Min. Damping (>=0)   DampMin         ....    0.0000
   Turn off err/grad.   DampErr         ....    0.1000
 Fernandez-Rico         CNVRico         .... off

SCF Procedure:
 Maximum # iterations   MaxIter         ....   125
 SCF integral mode      SCFMode         .... Direct
   Integral package                     .... LIBINT
 Reset frequency        DirectResetFreq ....    20
 Integral Threshold     Thresh          ....  2.500e-11 Eh
 Primitive CutOff       TCut            ....  2.500e-12 Eh

Convergence Tolerance:
 Convergence Check Mode ConvCheckMode   .... Total+1el-Energy
 Convergence forced     ConvForced      .... 1
 Energy Change          TolE            ....  1.000e-08 Eh
 1-El. energy change                    ....  1.000e-05 Eh
 Orbital Gradient       TolG            ....  1.000e-05
 Orbital Rotation angle TolX            ....  1.000e-05
 DIIS Error             TolErr          ....  5.000e-07


Diagonalization of the overlap matrix:
Smallest eigenvalue                        ... 1.073e-04
Time for diagonalization                   ...    0.158 sec
Threshold for overlap eigenvalues          ... 1.000e-08
Number of eigenvalues below threshold      ... 0
Time for construction of square roots      ...    0.088 sec
Total time needed                          ...    0.247 sec

---------------------
INITIAL GUESS: MOREAD
---------------------
Guess MOs are being read from file: orcacalc.ges
Input geometry compatible with but different from current geometry
Input basis set matches current basis set (good)
MOs were renormalized
MOs were reorthogonalized (Cholesky)
                      ------------------
                      INITIAL GUESS DONE (   0.3 sec)
                      ------------------
--------------
SCF ITERATIONS
--------------
ITER       Energy         Delta-E        Max-DP      RMS-DP      [F,P]     Damp
               ***  Starting incremental Fock matrix formation  ***
  0   -791.7976818500   0.000000000000 0.00205385  0.00002650  0.0133529 0.7000
                      *** Initiating the SOSCF procedure ***
                      *** Re-Reading the Fockian *** 
                      *** Removing any level shift *** 
ITER      Energy       Delta-E        Grad      Rot      Max-DP    RMS-DP
  1   -791.79823431  -0.0005524648  0.000426  0.000426  0.005665  0.000076
               *** Restarting incremental Fock matrix formation ***
  2   -791.79983421  -0.0015998936  0.000535  0.000638  0.002745  0.000026
  3   -791.79998497  -0.0001507612  0.000257  0.000587  0.000900  0.000017
  4   -791.80000978  -0.0000248061  0.000237  0.000234  0.000403  0.000005
  5   -791.80001540  -0.0000056195  0.000062  0.000070  0.000104  0.000002
  6   -791.80001603  -0.0000006341  0.000034  0.000071  0.000084  0.000001
  7   -791.80001620  -0.0000001718  0.000013  0.000060  0.000083  0.000001
  8   -791.80001625  -0.0000000509  0.000007  0.000015  0.000016  0.000000
  9   -791.80001626  -0.0000000069  0.000003  0.000005  0.000008  0.000000
                  ***Gradient check signals convergence***
              ***Rediagonalizing the Fockian in SOSCF/NRSCF***

               *****************************************************
               *                     SUCCESS                       *
               *           SCF CONVERGED AFTER  10 CYCLES          *
               *****************************************************


----------------
TOTAL SCF ENERGY
----------------

Total Energy       :         -791.80001626 Eh          -21545.97382 eV

Components:
Nuclear Repulsion  :         1061.71744247 Eh           28890.80039 eV
Electronic Energy  :        -1853.51745873 Eh          -50436.77421 eV
One Electron Energy:        -3181.65196466 Eh          -86577.15146 eV
Two Electron Energy:         1328.13450593 Eh           36140.37725 eV

Virial components:
Potential Energy   :        -1581.79462506 Eh          -43042.82000 eV
Kinetic Energy     :          789.99460880 Eh           21496.84618 eV
Virial Ratio       :            2.00228534


---------------
SCF CONVERGENCE
---------------

  Last Energy change         ...    4.1769e-10  Tolerance :   1.0000e-08
  Last MAX-Density change    ...    5.3289e-06  Tolerance :   1.0000e-07
  Last RMS-Density change    ...    6.2997e-08  Tolerance :   5.0000e-09
  Last Orbital Gradient      ...    1.1332e-06  Tolerance :   1.0000e-05
  Last Orbital Rotation      ...    3.2906e-06  Tolerance :   1.0000e-05

             **** THE GBW FILE WAS UPDATED (orcacalc.gbw) ****
             **** DENSITY FILE WAS UPDATED (orcacalc.scfp) ****
             **** ENERGY FILE WAS UPDATED (orcacalc.en.tmp) ****
             **** THE GBW FILE WAS UPDATED (orcacalc.gbw) ****
             **** DENSITY FILE WAS UPDATED (orcacalc.scfp) ****
----------------
ORBITAL ENERGIES
----------------

  NO   OCC          E(Eh)            E(eV) 
   0   2.0000     -15.589621      -424.2152 
   1   2.0000     -15.579022      -423.9267 
   2   2.0000     -15.574627      -423.8071 
   3   2.0000     -15.574416      -423.8014 
   4   2.0000     -15.569681      -423.6726 
   5   2.0000     -15.567711      -423.6190 
   6   2.0000     -11.306240      -307.6584 
   7   2.0000     -11.296187      -307.3849 
   8   2.0000     -11.289036      -307.1903 
   9   2.0000     -11.286653      -307.1254 
  10   2.0000     -11.286320      -307.1164 
  11   2.0000     -11.283697      -307.0450 
  12   2.0000     -11.282727      -307.0186 
  13   2.0000     -11.278639      -306.9074 
  14   2.0000     -11.276347      -306.8450 
  15   2.0000     -11.267926      -306.6158 
  16   2.0000     -11.254195      -306.2422 
  17   2.0000     -11.246394      -306.0300 
  18   2.0000      -1.223615       -33.2962 
  19   2.0000      -1.221202       -33.2306 
  20   2.0000      -1.219944       -33.1964 
  21   2.0000      -1.210794       -32.9474 
  22   2.0000      -1.208644       -32.8889 
  23   2.0000      -1.197837       -32.5948 
  24   2.0000      -1.048712       -28.5369 
  25   2.0000      -1.044602       -28.4251 
  26   2.0000      -1.033492       -28.1227 
  27   2.0000      -1.029690       -28.0193 
  28   2.0000      -1.027649       -27.9637 
  29   2.0000      -1.017865       -27.6975 
  30   2.0000      -0.714344       -19.4383 
  31   2.0000      -0.699928       -19.0460 
  32   2.0000      -0.695926       -18.9371 
  33   2.0000      -0.691105       -18.8059 
  34   2.0000      -0.684400       -18.6235 
  35   2.0000      -0.675057       -18.3692 
  36   2.0000      -0.644890       -17.5484 
  37   2.0000      -0.640463       -17.4279 
  38   2.0000      -0.635961       -17.3054 
  39   2.0000      -0.635311       -17.2877 
  40   2.0000      -0.621653       -16.9160 
  41   2.0000      -0.620196       -16.8764 
  42   2.0000      -0.618781       -16.8379 
  43   2.0000      -0.614439       -16.7197 
  44   2.0000      -0.611658       -16.6440 
  45   2.0000      -0.604190       -16.4408 
  46   2.0000      -0.602547       -16.3961 
  47   2.0000      -0.591905       -16.1066 
  48   2.0000      -0.563878       -15.3439 
  49   2.0000      -0.560029       -15.2392 
  50   2.0000      -0.558704       -15.2031 
  51   2.0000      -0.552452       -15.0330 
  52   2.0000      -0.551854       -15.0167 
  53   2.0000      -0.551034       -14.9944 
  54   2.0000      -0.469607       -12.7786 
  55   2.0000      -0.467269       -12.7150 
  56   2.0000      -0.466241       -12.6871 
  57   2.0000      -0.463005       -12.5990 
  58   2.0000      -0.461043       -12.5456 
  59   2.0000      -0.456943       -12.4340 
  60   2.0000      -0.455299       -12.3893 
  61   2.0000      -0.451342       -12.2816 
  62   2.0000      -0.446819       -12.1586 
  63   2.0000      -0.443518       -12.0687 
  64   2.0000      -0.442439       -12.0394 
  65   2.0000      -0.433737       -11.8026 
  66   0.0000       0.102755         2.7961 
  67   0.0000       0.118983         3.2377 
  68   0.0000       0.132480         3.6050 
  69   0.0000       0.137949         3.7538 
  70   0.0000       0.145023         3.9463 
  71   0.0000       0.147880         4.0240 
  72   0.0000       0.151428         4.1206 
  73   0.0000       0.153568         4.1788 
  74   0.0000       0.160088         4.3562 
  75   0.0000       0.165686         4.5085 
  76   0.0000       0.170770         4.6469 
  77   0.0000       0.171509         4.6670 
  78   0.0000       0.175341         4.7713 
  79   0.0000       0.182779         4.9737 
  80   0.0000       0.183978         5.0063 
  81   0.0000       0.188655         5.1336 
  82   0.0000       0.191364         5.2073 
  83   0.0000       0.194667         5.2972 
  84   0.0000       0.197248         5.3674 
  85   0.0000       0.205020         5.5789 
  86   0.0000       0.207517         5.6468 
  87   0.0000       0.213690         5.8148 
  88   0.0000       0.216376         5.8879 
  89   0.0000       0.220217         5.9924 
  90   0.0000       0.224698         6.1143 
  91   0.0000       0.227667         6.1951 
  92   0.0000       0.232267         6.3203 
  93   0.0000       0.240845         6.5537 
  94   0.0000       0.247288         6.7290 
  95   0.0000       0.248320         6.7571 
  96   0.0000       0.258472         7.0334 
  97   0.0000       0.261105         7.1050 
  98   0.0000       0.266630         7.2554 
  99   0.0000       0.270187         7.3522 
 100   0.0000       0.270870         7.3707 
 101   0.0000       0.281536         7.6610 
 102   0.0000       0.286471         7.7953 
 103   0.0000       0.293284         7.9807 
 104   0.0000       0.298286         8.1168 
 105   0.0000       0.303119         8.2483 
 106   0.0000       0.307145         8.3579 
 107   0.0000       0.314746         8.5647 
 108   0.0000       0.319127         8.6839 
 109   0.0000       0.322547         8.7770 
 110   0.0000       0.328107         8.9282 
 111   0.0000       0.332898         9.0586 
 112   0.0000       0.343872         9.3572 
 113   0.0000       0.350507         9.5378 
 114   0.0000       0.356562         9.7025 
 115   0.0000       0.357985         9.7413 
 116   0.0000       0.365544         9.9470 
 117   0.0000       0.377821        10.2810 
 118   0.0000       0.383234        10.4283 
 119   0.0000       0.393953        10.7200 
 120   0.0000       0.399924        10.8825 
 121   0.0000       0.409931        11.1548 
 122   0.0000       0.419622        11.4185 
 123   0.0000       0.421895        11.4803 
 124   0.0000       0.433497        11.7961 
 125   0.0000       0.437935        11.9168 
 126   0.0000       0.449490        12.2312 
 127   0.0000       0.454739        12.3741 
 128   0.0000       0.461758        12.5651 
 129   0.0000       0.470969        12.8157 
 130   0.0000       0.482792        13.1374 
 131   0.0000       0.490500        13.3472 
 132   0.0000       0.492430        13.3997 
 133   0.0000       0.497593        13.5402 
 134   0.0000       0.509538        13.8652 
 135   0.0000       0.511794        13.9266 
 136   0.0000       0.524604        14.2752 
 137   0.0000       0.529281        14.4025 
 138   0.0000       0.537078        14.6146 
 139   0.0000       0.538781        14.6610 
 140   0.0000       0.544260        14.8101 
 141   0.0000       0.545702        14.8493 
 142   0.0000       0.550801        14.9881 
 143   0.0000       0.562194        15.2981 
 144   0.0000       0.566412        15.4128 
 145   0.0000       0.567629        15.4460 
 146   0.0000       0.571624        15.5547 
 147   0.0000       0.572791        15.5864 
 148   0.0000       0.582472        15.8499 
 149   0.0000       0.586526        15.9602 
 150   0.0000       0.595825        16.2132 
 151   0.0000       0.599836        16.3224 
 152   0.0000       0.602470        16.3941 
 153   0.0000       0.610579        16.6147 
 154   0.0000       0.615440        16.7470 
 155   0.0000       0.617483        16.8026 
 156   0.0000       0.624630        16.9970 
 157   0.0000       0.631074        17.1724 
 158   0.0000       0.631611        17.1870 
 159   0.0000       0.636880        17.3304 
 160   0.0000       0.649134        17.6638 
 161   0.0000       0.652934        17.7672 
 162   0.0000       0.661970        18.0131 
 163   0.0000       0.664398        18.0792 
 164   0.0000       0.675209        18.3734 
 165   0.0000       0.682176        18.5629 
 166   0.0000       0.690386        18.7864 
 167   0.0000       0.693227        18.8637 
 168   0.0000       0.703842        19.1525 
 169   0.0000       0.708772        19.2867 
 170   0.0000       0.714019        19.4294 
 171   0.0000       0.720205        19.5978 
 172   0.0000       0.727640        19.8001 
 173   0.0000       0.730453        19.8766 
 174   0.0000       0.737489        20.0681 
 175   0.0000       0.741051        20.1650 
 176   0.0000       0.755381        20.5550 
 177   0.0000       0.763265        20.7695 
 178   0.0000       0.765934        20.8421 
 179   0.0000       0.770118        20.9560 
 180   0.0000       0.773916        21.0593 
 181   0.0000       0.777226        21.1494 
 182   0.0000       0.789862        21.4932 
 183   0.0000       0.798877        21.7386 
 184   0.0000       0.801715        21.8158 
 185   0.0000       0.805587        21.9211 
 186   0.0000       0.809039        22.0151 
 187   0.0000       0.814134        22.1537 
 188   0.0000       0.825581        22.4652 
 189   0.0000       0.829406        22.5693 
 190   0.0000       0.836441        22.7607 
 191   0.0000       0.843295        22.9472 
 192   0.0000       0.851870        23.1806 
 193   0.0000       0.855307        23.2741 
 194   0.0000       0.863072        23.4854 
 195   0.0000       0.864197        23.5160 
 196   0.0000       0.878274        23.8991 
 197   0.0000       0.881052        23.9746 
 198   0.0000       0.887648        24.1541 
 199   0.0000       0.899157        24.4673 
 200   0.0000       0.907494        24.6942 
 201   0.0000       0.913270        24.8513 
 202   0.0000       0.918779        25.0013 
 203   0.0000       0.923268        25.1234 
 204   0.0000       0.931460        25.3463 
 205   0.0000       0.935598        25.4589 
 206   0.0000       0.949531        25.8380 
 207   0.0000       0.953678        25.9509 
 208   0.0000       0.967059        26.3150 
 209   0.0000       0.970624        26.4120 
 210   0.0000       0.983480        26.7619 
 211   0.0000       0.999445        27.1963 
 212   0.0000       1.001661        27.2566 
 213   0.0000       1.011084        27.5130 
 214   0.0000       1.020926        27.7808 
 215   0.0000       1.034219        28.1425 
 216   0.0000       1.051671        28.6174 
 217   0.0000       1.062484        28.9117 
 218   0.0000       1.068430        29.0735 
 219   0.0000       1.076709        29.2987 
 220   0.0000       1.080477        29.4013 
 221   0.0000       1.108361        30.1600 
 222   0.0000       1.128904        30.7190 
 223   0.0000       1.139080        30.9960 
 224   0.0000       1.147730        31.2313 
 225   0.0000       1.164059        31.6757 
 226   0.0000       1.179956        32.1082 
 227   0.0000       1.185262        32.2526 
 228   0.0000       1.189018        32.3548 
 229   0.0000       1.192273        32.4434 
 230   0.0000       1.196927        32.5700 
 231   0.0000       1.214855        33.0579 
 232   0.0000       1.227685        33.4070 
 233   0.0000       1.238864        33.7112 
 234   0.0000       1.303221        35.4624 
 235   0.0000       1.323917        36.0256 
 236   0.0000       1.340500        36.4769 
 237   0.0000       1.344599        36.5884 
 238   0.0000       1.360288        37.0153 
 239   0.0000       1.364415        37.1276 
 240   0.0000       1.371457        37.3192 
 241   0.0000       1.392660        37.8962 
 242   0.0000       1.404292        38.2127 
 243   0.0000       1.408164        38.3181 
 244   0.0000       1.409859        38.3642 
 245   0.0000       1.416473        38.5442 
 246   0.0000       1.417541        38.5733 
 247   0.0000       1.427139        38.8344 
 248   0.0000       1.429884        38.9091 
 249   0.0000       1.434158        39.0254 
 250   0.0000       1.436471        39.0884 
 251   0.0000       1.452726        39.5307 
 252   0.0000       1.457213        39.6528 
 253   0.0000       1.459899        39.7259 
 254   0.0000       1.470476        40.0137 
 255   0.0000       1.472994        40.0822 
 256   0.0000       1.477401        40.2021 
 257   0.0000       1.485407        40.4200 
 258   0.0000       1.486723        40.4558 
 259   0.0000       1.497890        40.7597 
 260   0.0000       1.498596        40.7789 
 261   0.0000       1.505304        40.9614 
 262   0.0000       1.508169        41.0394 
 263   0.0000       1.519181        41.3390 
 264   0.0000       1.524860        41.4936 
 265   0.0000       1.529789        41.6277 
 266   0.0000       1.541491        41.9461 
 267   0.0000       1.546498        42.0823 
 268   0.0000       1.562120        42.5075 
 269   0.0000       1.574677        42.8491 
 270   0.0000       1.581637        43.0385 
 271   0.0000       1.587336        43.1936 
 272   0.0000       1.597936        43.4820 
 273   0.0000       1.611657        43.8554 
 274   0.0000       1.614818        43.9414 
 275   0.0000       1.667577        45.3771 
 276   0.0000       1.704051        46.3696 
 277   0.0000       1.717023        46.7226 
 278   0.0000       1.718138        46.7529 
 279   0.0000       1.726621        46.9837 
 280   0.0000       1.734244        47.1912 
 281   0.0000       1.736450        47.2512 
 282   0.0000       1.743045        47.4307 
 283   0.0000       1.750518        47.6340 
 284   0.0000       1.753285        47.7093 
 285   0.0000       1.762415        47.9578 
 286   0.0000       1.768420        48.1212 
 287   0.0000       1.770507        48.1780 
 288   0.0000       1.773408        48.2569 
 289   0.0000       1.779874        48.4328 
 290   0.0000       1.781203        48.4690 
 291   0.0000       1.793239        48.7965 
 292   0.0000       1.799993        48.9803 
 293   0.0000       1.804472        49.1022 
 294   0.0000       1.811668        49.2980 
 295   0.0000       1.815001        49.3887 
 296   0.0000       1.817099        49.4458 
 297   0.0000       1.820245        49.5314 
 298   0.0000       1.830099        49.7995 
 299   0.0000       1.836653        49.9779 
 300   0.0000       1.840410        50.0801 
 301   0.0000       1.843947        50.1764 
 302   0.0000       1.848891        50.3109 
 303   0.0000       1.853650        50.4404 
 304   0.0000       1.860799        50.6349 
 305   0.0000       1.867418        50.8150 
 306   0.0000       1.892663        51.5020 
 307   0.0000       1.898770        51.6681 
 308   0.0000       1.901497        51.7424 
 309   0.0000       1.911051        52.0023 
 310   0.0000       1.925973        52.4084 
 311   0.0000       1.933357        52.6093 
 312   0.0000       1.935715        52.6735 
 313   0.0000       1.944114        52.9020 
 314   0.0000       1.951075        53.0915 
 315   0.0000       1.965247        53.4771 
 316   0.0000       1.968702        53.5711 
 317   0.0000       1.971163        53.6381 
 318   0.0000       1.974268        53.7226 
 319   0.0000       1.980930        53.9038 
 320   0.0000       1.986950        54.0677 
 321   0.0000       1.998621        54.3852 
 322   0.0000       2.003137        54.5081 
 323   0.0000       2.010014        54.6953 
 324   0.0000       2.026318        55.1389 
 325   0.0000       2.035280        55.3828 
 326   0.0000       2.041072        55.5404 
 327   0.0000       2.068550        56.2881 
 328   0.0000       2.079050        56.5738 
 329   0.0000       2.102663        57.2164 
 330   0.0000       2.176826        59.2345 
 331   0.0000       2.205039        60.0022 
 332   0.0000       2.212548        60.2065 
 333   0.0000       2.221520        60.4506 
 334   0.0000       2.230980        60.7081 
 335   0.0000       2.236829        60.8672 
 336   0.0000       2.239453        60.9386 
 337   0.0000       2.244282        61.0700 
 338   0.0000       2.262392        61.5628 
 339   0.0000       2.269372        61.7528 
 340   0.0000       2.271791        61.8186 
 341   0.0000       2.279679        62.0332 
 342   0.0000       2.293217        62.4016 
 343   0.0000       2.309363        62.8410 
 344   0.0000       2.317692        63.0676 
 345   0.0000       2.327086        63.3232 
 346   0.0000       2.342240        63.7356 
 347   0.0000       2.352920        64.0262 
 348   0.0000       2.362865        64.2968 
 349   0.0000       2.370825        64.5134 
 350   0.0000       2.397102        65.2285 
 351   0.0000       2.410456        65.5918 
 352   0.0000       2.428150        66.0733 
 353   0.0000       2.435212        66.2655 
 354   0.0000       2.494157        67.8695 
 355   0.0000       2.507852        68.2421 
 356   0.0000       2.520469        68.5855 
 357   0.0000       2.539253        69.0966 
 358   0.0000       2.552215        69.4493 
 359   0.0000       2.567122        69.8549 
 360   0.0000       2.569695        69.9249 
 361   0.0000       2.572344        69.9970 
 362   0.0000       2.576927        70.1217 
 363   0.0000       2.586259        70.3757 
 364   0.0000       2.596961        70.6669 
 365   0.0000       2.600332        70.7586 
 366   0.0000       2.604824        70.8809 
 367   0.0000       2.611147        71.0529 
 368   0.0000       2.617823        71.2346 
 369   0.0000       2.626370        71.4672 
 370   0.0000       2.632203        71.6259 
 371   0.0000       2.638577        71.7993 
 372   0.0000       2.640616        71.8548 
 373   0.0000       2.645602        71.9905 
 374   0.0000       2.661556        72.4246 
 375   0.0000       2.663188        72.4690 
 376   0.0000       2.674293        72.7712 
 377   0.0000       2.675760        72.8111 
 378   0.0000       2.691523        73.2401 
 379   0.0000       2.703549        73.5673 
 380   0.0000       2.713857        73.8478 
 381   0.0000       2.716529        73.9205 
 382   0.0000       2.720944        74.0406 
 383   0.0000       2.729246        74.2666 
 384   0.0000       2.732731        74.3614 
 385   0.0000       2.741458        74.5989 
 386   0.0000       2.748437        74.7888 
 387   0.0000       2.750742        74.8515 
 388   0.0000       2.762312        75.1663 
 389   0.0000       2.765261        75.2466 
 390   0.0000       2.767538        75.3085 
 391   0.0000       2.772706        75.4492 
 392   0.0000       2.784561        75.7718 
 393   0.0000       2.787288        75.8460 
 394   0.0000       2.788598        75.8816 
 395   0.0000       2.804290        76.3086 
 396   0.0000       2.815345        76.6094 
 397   0.0000       2.823083        76.8200 
 398   0.0000       2.829252        76.9879 
 399   0.0000       2.842299        77.3429 
 400   0.0000       2.869019        78.0700 
 401   0.0000       2.877235        78.2935 
 402   0.0000       2.887356        78.5690 
 403   0.0000       2.889563        78.6290 
 404   0.0000       2.895421        78.7884 
 405   0.0000       2.896863        78.8277 
 406   0.0000       2.900008        78.9132 
 407   0.0000       2.906024        79.0769 
 408   0.0000       2.908327        79.1396 
 409   0.0000       2.911870        79.2360 
 410   0.0000       2.915677        79.3396 
 411   0.0000       2.918239        79.4093 
 412   0.0000       2.925081        79.5955 
 413   0.0000       2.927995        79.6748 
 414   0.0000       2.934818        79.8605 
 415   0.0000       2.936974        79.9191 
 416   0.0000       2.938593        79.9632 
 417   0.0000       2.942501        80.0695 
 418   0.0000       2.949643        80.2639 
 419   0.0000       2.958025        80.4920 
 420   0.0000       2.962735        80.6201 
 421   0.0000       2.987631        81.2976 
 422   0.0000       2.996859        81.5487 
 423   0.0000       3.004791        81.7645 
 424   0.0000       3.012501        81.9743 
 425   0.0000       3.017570        82.1123 
 426   0.0000       3.020006        82.1785 
 427   0.0000       3.027749        82.3892 
 428   0.0000       3.029944        82.4490 
 429   0.0000       3.035263        82.5937 
 430   0.0000       3.065943        83.4285 
 431   0.0000       3.075826        83.6975 
 432   0.0000       3.079536        83.7984 
 433   0.0000       3.091245        84.1170 
 434   0.0000       3.103566        84.4523 
 435   0.0000       3.112264        84.6890 
 436   0.0000       3.118770        84.8661 
 437   0.0000       3.123445        84.9933 
 438   0.0000       3.132528        85.2404 
 439   0.0000       3.142161        85.5025 
 440   0.0000       3.178063        86.4795 
 441   0.0000       3.184661        86.6590 
 442   0.0000       3.190711        86.8237 
 443   0.0000       3.194982        86.9399 
 444   0.0000       3.225726        87.7765 
 445   0.0000       3.226478        87.7969 
 446   0.0000       3.229051        87.8669 
 447   0.0000       3.232508        87.9610 
 448   0.0000       3.236758        88.0767 
 449   0.0000       3.243374        88.2567 
 450   0.0000       3.248707        88.4018 
 451   0.0000       3.249305        88.4181 
 452   0.0000       3.257836        88.6502 
 453   0.0000       3.267607        88.9161 
 454   0.0000       3.270980        89.0079 
 455   0.0000       3.282724        89.3275 
 456   0.0000       3.288413        89.4823 
 457   0.0000       3.295179        89.6664 
 458   0.0000       3.304269        89.9137 
 459   0.0000       3.312229        90.1303 
 460   0.0000       3.312870        90.1478 
 461   0.0000       3.326545        90.5199 
 462   0.0000       3.327560        90.5475 
 463   0.0000       3.331805        90.6630 
 464   0.0000       3.338437        90.8435 
 465   0.0000       3.342173        90.9451 
 466   0.0000       3.347049        91.0778 
 467   0.0000       3.360132        91.4339 
 468   0.0000       3.363369        91.5219 
 469   0.0000       3.365906        91.5910 
 470   0.0000       3.382031        92.0298 
 471   0.0000       3.401026        92.5466 
 472   0.0000       3.405203        92.6603 
 473   0.0000       3.422423        93.1289 
 474   0.0000       3.434939        93.4694 
 475   0.0000       3.456183        94.0475 
 476   0.0000       3.462619        94.2227 
 477   0.0000       3.468455        94.3814 
 478   0.0000       3.470275        94.4310 
 479   0.0000       3.476785        94.6081 
 480   0.0000       3.480124        94.6990 
 481   0.0000       3.486101        94.8616 
 482   0.0000       3.498952        95.2113 
 483   0.0000       3.501780        95.2883 
 484   0.0000       3.502957        95.3203 
 485   0.0000       3.508877        95.4814 
 486   0.0000       3.514917        95.6457 
 487   0.0000       3.542347        96.3922 
 488   0.0000       3.556485        96.7769 
 489   0.0000       3.558844        96.8411 
 490   0.0000       3.568981        97.1169 
 491   0.0000       3.577139        97.3389 
 492   0.0000       3.624374        98.6242 
 493   0.0000       3.636129        98.9441 
 494   0.0000       3.649405        99.3054 
 495   0.0000       3.662358        99.6578 
 496   0.0000       3.666015        99.7573 
 497   0.0000       3.677764       100.0770 
 498   0.0000       3.680458       100.1504 
 499   0.0000       3.683299       100.2277 
 500   0.0000       3.704556       100.8061 
 501   0.0000       3.719315       101.2077 
 502   0.0000       3.732885       101.5770 
 503   0.0000       3.739460       101.7559 
 504   0.0000       3.754941       102.1771 
 505   0.0000       3.763571       102.4120 
 506   0.0000       3.777760       102.7981 
 507   0.0000       3.792234       103.1919 
 508   0.0000       3.803273       103.4923 
 509   0.0000       3.818346       103.9025 
 510   0.0000       3.839980       104.4912 
 511   0.0000       3.847390       104.6928 
 512   0.0000       3.853953       104.8714 
 513   0.0000       3.867805       105.2483 
 514   0.0000       3.871756       105.3558 
 515   0.0000       3.874257       105.4239 
 516   0.0000       3.877223       105.5046 
 517   0.0000       3.904083       106.2355 
 518   0.0000       3.914670       106.5236 
 519   0.0000       3.934925       107.0748 
 520   0.0000       3.943229       107.3007 
 521   0.0000       3.952978       107.5660 
 522   0.0000       3.958623       107.7196 
 523   0.0000       3.960309       107.7655 
 524   0.0000       3.967047       107.9488 
 525   0.0000       3.968784       107.9961 
 526   0.0000       3.976821       108.2148 
 527   0.0000       3.982644       108.3732 
 528   0.0000       3.987482       108.5049 
 529   0.0000       3.992947       108.6536 
 530   0.0000       3.996954       108.7626 
 531   0.0000       4.022884       109.4682 
 532   0.0000       4.078201       110.9735 
 533   0.0000       4.085018       111.1590 
 534   0.0000       4.172925       113.5511 
 535   0.0000       4.203815       114.3916 
 536   0.0000       4.213463       114.6542 
 537   0.0000       4.230491       115.1175 
 538   0.0000       4.252861       115.7262 
 539   0.0000       4.258559       115.8813 
 540   0.0000       4.270264       116.1998 
 541   0.0000       4.280914       116.4896 
 542   0.0000       4.292625       116.8083 
 543   0.0000       4.305248       117.1517 
 544   0.0000       4.323500       117.6484 
 545   0.0000       4.329357       117.8078 
 546   0.0000       4.332112       117.8828 
 547   0.0000       4.340589       118.1134 
 548   0.0000       4.341976       118.1512 
 549   0.0000       4.346588       118.2767 
 550   0.0000       4.348274       118.3226 
 551   0.0000       4.350664       118.3876 
 552   0.0000       4.355333       118.5146 
 553   0.0000       4.359074       118.6164 
 554   0.0000       4.360160       118.6460 
 555   0.0000       4.365180       118.7826 
 556   0.0000       4.386084       119.3514 
 557   0.0000       4.416948       120.1913 
 558   0.0000       4.532662       123.3400 
 559   0.0000       4.541759       123.5876 
 560   0.0000       4.553506       123.9072 
 561   0.0000       4.567259       124.2814 
 562   0.0000       4.576802       124.5411 
 563   0.0000       4.588137       124.8496 
 564   0.0000       4.666019       126.9688 
 565   0.0000       4.684362       127.4680 
 566   0.0000       4.687457       127.5522 
 567   0.0000       4.696165       127.7892 
 568   0.0000       4.716468       128.3416 
 569   0.0000       4.738900       128.9520 
 570   0.0000       4.758254       129.4787 
 571   0.0000       4.789186       130.3204 
 572   0.0000       4.793488       130.4374 
 573   0.0000       4.800664       130.6327 
 574   0.0000       4.810964       130.9130 
 575   0.0000       4.821234       131.1925 
 576   0.0000       4.858686       132.2116 
 577   0.0000       4.864325       132.3650 
 578   0.0000       4.875454       132.6679 
 579   0.0000       4.887833       133.0047 
 580   0.0000       4.915372       133.7541 
 581   0.0000       4.939528       134.4114 
 582   0.0000       4.946836       134.6103 
 583   0.0000       4.952808       134.7728 
 584   0.0000       4.954695       134.8241 
 585   0.0000       4.972865       135.3185 
 586   0.0000       4.981729       135.5597 
 587   0.0000       4.985987       135.6756 
 588   0.0000       4.999617       136.0465 
 589   0.0000       5.003635       136.1558 
 590   0.0000       5.013724       136.4304 
 591   0.0000       5.017551       136.5345 
 592   0.0000       5.021453       136.6407 
 593   0.0000       5.037622       137.0807 
 594   0.0000       5.041398       137.1834 
 595   0.0000       5.051651       137.4624 
 596   0.0000       5.054840       137.5492 
 597   0.0000       5.056803       137.6026 
 598   0.0000       5.066547       137.8678 
 599   0.0000       5.068974       137.9338 
 600   0.0000       5.079640       138.2240 
 601   0.0000       5.085757       138.3905 
 602   0.0000       5.092617       138.5772 
 603   0.0000       5.110207       139.0558 
 604   0.0000       5.123257       139.4109 
 605   0.0000       5.132382       139.6592 
 606   0.0000       5.160654       140.4285 
 607   0.0000       5.178657       140.9184 
 608   0.0000       5.191151       141.2584 
 609   0.0000       5.205377       141.6455 
 610   0.0000       5.221312       142.0791 
 611   0.0000       5.230044       142.3167 
 612   0.0000       5.522409       150.2724 
 613   0.0000       5.539652       150.7416 
 614   0.0000       5.557558       151.2289 
 615   0.0000       5.567182       151.4907 
 616   0.0000       5.575078       151.7056 
 617   0.0000       5.583119       151.9244 
 618   0.0000       5.585748       151.9959 
 619   0.0000       5.592837       152.1888 
 620   0.0000       5.598302       152.3376 
 621   0.0000       5.621075       152.9572 
 622   0.0000       5.621839       152.9780 
 623   0.0000       5.648071       153.6918 
 624   0.0000       5.954680       162.0351 
 625   0.0000       5.977551       162.6574 
 626   0.0000       5.986231       162.8936 
 627   0.0000       6.003305       163.3582 
 628   0.0000       6.005220       163.4103 
 629   0.0000       6.021753       163.8602 
 630   0.0000       6.047806       164.5692 
 631   0.0000       6.055893       164.7892 
 632   0.0000       6.067085       165.0938 
 633   0.0000       6.068832       165.1413 
 634   0.0000       6.080138       165.4490 
 635   0.0000       6.084866       165.5776 
 636   0.0000       6.086037       165.6095 
 637   0.0000       6.096070       165.8825 
 638   0.0000       6.103855       166.0943 
 639   0.0000       6.115219       166.4036 
 640   0.0000       6.145988       167.2408 
 641   0.0000       6.153450       167.4439 
 642   0.0000       6.380809       173.6306 
 643   0.0000       6.394051       173.9910 
 644   0.0000       6.399775       174.1467 
 645   0.0000       6.471117       176.0881 
 646   0.0000       6.486298       176.5012 
 647   0.0000       6.503820       176.9780 
 648   0.0000      23.364292       635.7747 
 649   0.0000      23.402448       636.8130 
 650   0.0000      23.412271       637.0803 
 651   0.0000      23.467260       638.5766 
 652   0.0000      23.517733       639.9501 
 653   0.0000      23.711741       645.2293 
 654   0.0000      24.224282       659.1762 
 655   0.0000      24.237365       659.5322 
 656   0.0000      24.321683       661.8267 
 657   0.0000      24.351573       662.6400 
 658   0.0000      24.371212       663.1744 
 659   0.0000      24.407505       664.1620 
 660   0.0000      33.421628       909.4487 
 661   0.0000      33.443161       910.0347 
 662   0.0000      33.456202       910.3895 
 663   0.0000      33.464515       910.6157 
 664   0.0000      33.491073       911.3384 
 665   0.0000      33.555553       913.0930 

                    ********************************
                    * MULLIKEN POPULATION ANALYSIS *
                    ********************************

-----------------------
MULLIKEN ATOMIC CHARGES
-----------------------
   0 C :   -0.228370
   1 H :    0.172270
   2 H :    0.174975
   3 H :    0.142905
   4 C :    0.008553
   5 N :   -0.276345
   6 C :   -0.143951
   7 H :    0.183067
   8 H :    0.142482
   9 H :    0.149855
  10 C :   -0.042102
  11 N :   -0.298493
  12 C :   -0.195838
  13 H :    0.148968
  14 H :    0.171676
  15 H :    0.175487
  16 C :   -0.034012
  17 N :   -0.264684
  18 C :   -0.185335
  19 H :    0.164324
  20 H :    0.158993
  21 H :    0.196901
  22 C :    0.002303
  23 N :   -0.325061
  24 C :   -0.194455
  25 H :    0.158675
  26 H :    0.153614
  27 H :    0.167623
  28 C :   -0.053197
  29 N :   -0.234945
  30 C :   -0.186997
  31 H :    0.158010
  32 H :    0.208929
  33 H :    0.166180
  34 C :    0.007441
  35 N :   -0.349449
Sum of atomic charges:   -0.0000000

--------------------------------
MULLIKEN REDUCED ORBITAL CHARGES
--------------------------------
  0 C s       :     3.138081  s :     3.138081
      pz      :     1.089435  p :     3.017821
      px      :     1.102242
      py      :     0.826144
      dz2     :     0.013621  d :     0.068632
      dxz     :     0.009265
      dyz     :     0.015346
      dx2y2   :     0.019510
      dxy     :     0.010890
      f0      :     0.000287  f :     0.003836
      f+1     :     0.000901
      f-1     :     0.000699
      f+2     :     0.000383
      f-2     :     0.000110
      f+3     :     0.000334
      f-3     :     0.001121
  1 H s       :     0.805972  s :     0.805972
      pz      :     0.003649  p :     0.021758
      px      :     0.013139
      py      :     0.004970
  2 H s       :     0.801680  s :     0.801680
      pz      :     0.012546  p :     0.023344
      px      :     0.005871
      py      :     0.004927
  3 H s       :     0.834646  s :     0.834646
      pz      :     0.009248  p :     0.022448
      px      :     0.006014
      py      :     0.007186
  4 C s       :     3.193367  s :     3.193367
      pz      :     0.875046  p :     2.670078
      px      :     0.847163
      py      :     0.947870
      dz2     :     0.006098  d :     0.111245
      dxz     :     0.000969
      dyz     :     0.040356
      dx2y2   :     0.018344
      dxy     :     0.045479
      f0      :     0.002183  f :     0.016756
      f+1     :     0.000351
      f-1     :     0.001793
      f+2     :     0.003816
      f-2     :     0.000271
      f+3     :     0.005629
      f-3     :     0.002713
  5 N s       :     3.736862  s :     3.736862
      pz      :     1.074291  p :     3.482793
      px      :     1.112272
      py      :     1.296230
      dz2     :     0.003625  d :     0.053704
      dxz     :     0.000663
      dyz     :     0.020667
      dx2y2   :     0.008929
      dxy     :     0.019821
      f0      :     0.000373  f :     0.002986
      f+1     :     0.000058
      f-1     :     0.000324
      f+2     :     0.000676
      f-2     :     0.000073
      f+3     :     0.001005
      f-3     :     0.000476
  6 C s       :     3.092353  s :     3.092353
      pz      :     1.044310  p :     2.988229
      px      :     1.116843
      py      :     0.827076
      dz2     :     0.012188  d :     0.059970
      dxz     :     0.005193
      dyz     :     0.017478
      dx2y2   :     0.017010
      dxy     :     0.008101
      f0      :     0.000379  f :     0.003399
      f+1     :     0.000620
      f-1     :     0.000756
      f+2     :     0.000471
      f-2     :     0.000050
      f+3     :     0.000766
      f-3     :     0.000357
  7 H s       :     0.786734  s :     0.786734
      pz      :     0.004976  p :     0.030199
      px      :     0.020459
      py      :     0.004764
  8 H s       :     0.833964  s :     0.833964
      pz      :     0.013536  p :     0.023554
      px      :     0.005515
      py      :     0.004503
  9 H s       :     0.828298  s :     0.828298
      pz      :     0.008771  p :     0.021847
      px      :     0.004722
      py      :     0.008354
 10 C s       :     3.218919  s :     3.218919
      pz      :     0.886521  p :     2.691190
      px      :     0.864621
      py      :     0.940048
      dz2     :     0.012179  d :     0.114628
      dxz     :     0.003771
      dyz     :     0.034554
      dx2y2   :     0.026340
      dxy     :     0.037784
      f0      :     0.001518  f :     0.017366
      f+1     :     0.000369
      f-1     :     0.003080
      f+2     :     0.002904
      f-2     :     0.001485
      f+3     :     0.004149
      f-3     :     0.003861
 11 N s       :     3.775697  s :     3.775697
      pz      :     1.093542  p :     3.466659
      px      :     1.127109
      py      :     1.246009
      dz2     :     0.006086  d :     0.053342
      dxz     :     0.002416
      dyz     :     0.016961
      dx2y2   :     0.011051
      dxy     :     0.016828
      f0      :     0.000235  f :     0.002795
      f+1     :     0.000052
      f-1     :     0.000504
      f+2     :     0.000481
      f-2     :     0.000238
      f+3     :     0.000697
      f-3     :     0.000588
 12 C s       :     3.186300  s :     3.186300
      pz      :     1.068230  p :     2.943299
      px      :     0.898470
      py      :     0.976598
      dz2     :     0.015268  d :     0.062632
      dxz     :     0.008168
      dyz     :     0.010975
      dx2y2   :     0.011411
      dxy     :     0.016809
      f0      :     0.001238  f :     0.003607
      f+1     :     0.000262
      f-1     :     0.000194
      f+2     :     0.000143
      f-2     :     0.000438
      f+3     :     0.000290
      f-3     :     0.001040
 13 H s       :     0.828714  s :     0.828714
      pz      :     0.004041  p :     0.022319
      px      :     0.012303
      py      :     0.005975
 14 H s       :     0.804466  s :     0.804466
      pz      :     0.016072  p :     0.023858
      px      :     0.003883
      py      :     0.003903
 15 H s       :     0.802302  s :     0.802302
      pz      :     0.005872  p :     0.022211
      px      :     0.003507
      py      :     0.012831
 16 C s       :     3.246154  s :     3.246154
      pz      :     0.880902  p :     2.664242
      px      :     0.876758
      py      :     0.906583
      dz2     :     0.011274  d :     0.107546
      dxz     :     0.021399
      dyz     :     0.015298
      dx2y2   :     0.041117
      dxy     :     0.018459
      f0      :     0.001753  f :     0.016069
      f+1     :     0.001605
      f-1     :     0.001147
      f+2     :     0.000704
      f-2     :     0.003433
      f+3     :     0.004740
      f-3     :     0.002687
 17 N s       :     3.752078  s :     3.752078
      pz      :     1.104505  p :     3.455237
      px      :     1.185930
      py      :     1.164801
      dz2     :     0.004550  d :     0.054432
      dxz     :     0.012606
      dyz     :     0.008152
      dx2y2   :     0.019494
      dxy     :     0.009630
      f0      :     0.000344  f :     0.002938
      f+1     :     0.000249
      f-1     :     0.000181
      f+2     :     0.000120
      f-2     :     0.000627
      f+3     :     0.000942
      f-3     :     0.000476
 18 C s       :     3.168083  s :     3.168083
      pz      :     0.963003  p :     2.951177
      px      :     0.960155
      py      :     1.028019
      dz2     :     0.004305  d :     0.062582
      dxz     :     0.019091
      dyz     :     0.018064
      dx2y2   :     0.006508
      dxy     :     0.014615
      f0      :     0.000186  f :     0.003493
      f+1     :     0.000195
      f-1     :     0.000156
      f+2     :     0.000508
      f-2     :     0.002073
      f+3     :     0.000148
      f-3     :     0.000227
 19 H s       :     0.814905  s :     0.814905
      pz      :     0.006972  p :     0.020771
      px      :     0.005466
      py      :     0.008332
 20 H s       :     0.818678  s :     0.818678
      pz      :     0.006937  p :     0.022330
      px      :     0.010600
      py      :     0.004793
 21 H s       :     0.780140  s :     0.780140
      pz      :     0.008400  p :     0.022960
      px      :     0.005782
      py      :     0.008778
 22 C s       :     3.238179  s :     3.238179
      pz      :     0.888041  p :     2.624558
      px      :     0.868480
      py      :     0.868037
      dz2     :     0.030281  d :     0.117758
      dxz     :     0.021721
      dyz     :     0.019102
      dx2y2   :     0.025420
      dxy     :     0.021235
      f0      :     0.001519  f :     0.017202
      f+1     :     0.003508
      f-1     :     0.002076
      f+2     :     0.003697
      f-2     :     0.002445
      f+3     :     0.002244
      f-3     :     0.001713
 23 N s       :     3.772326  s :     3.772326
      pz      :     1.178294  p :     3.499367
      px      :     1.160711
      py      :     1.160362
      dz2     :     0.013862  d :     0.050464
      dxz     :     0.008200
      dyz     :     0.008322
      dx2y2   :     0.012077
      dxy     :     0.008004
      f0      :     0.000263  f :     0.002904
      f+1     :     0.000594
      f-1     :     0.000346
      f+2     :     0.000635
      f-2     :     0.000391
      f+3     :     0.000408
      f-3     :     0.000268
 24 C s       :     3.170736  s :     3.170736
      pz      :     0.922297  p :     2.954989
      px      :     0.975444
      py      :     1.057247
      dz2     :     0.007382  d :     0.065111
      dxz     :     0.021153
      dyz     :     0.013997
      dx2y2   :     0.006547
      dxy     :     0.016032
      f0      :     0.000214  f :     0.003620
      f+1     :     0.000735
      f-1     :     0.000182
      f+2     :     0.000355
      f-2     :     0.001485
      f+3     :     0.000533
      f-3     :     0.000116
 25 H s       :     0.819398  s :     0.819398
      pz      :     0.004781  p :     0.021927
      px      :     0.007605
      py      :     0.009541
 26 H s       :     0.824947  s :     0.824947
      pz      :     0.009072  p :     0.021439
      px      :     0.006447
      py      :     0.005921
 27 H s       :     0.810110  s :     0.810110
      pz      :     0.004611  p :     0.022267
      px      :     0.006013
      py      :     0.011642
 28 C s       :     3.225361  s :     3.225361
      pz      :     0.901758  p :     2.696438
      px      :     0.938136
      py      :     0.856545
      dz2     :     0.038561  d :     0.114049
      dxz     :     0.019914
      dyz     :     0.029637
      dx2y2   :     0.011568
      dxy     :     0.014369
      f0      :     0.004415  f :     0.017349
      f+1     :     0.002967
      f-1     :     0.002324
      f+2     :     0.003625
      f-2     :     0.002675
      f+3     :     0.000634
      f-3     :     0.000708
 29 N s       :     3.729957  s :     3.729957
      pz      :     1.209593  p :     3.447320
      px      :     1.134473
      py      :     1.103254
      dz2     :     0.017164  d :     0.054683
      dxz     :     0.012569
      dyz     :     0.013259
      dx2y2   :     0.006601
      dxy     :     0.005090
      f0      :     0.000847  f :     0.002985
      f+1     :     0.000466
      f-1     :     0.000435
      f+2     :     0.000630
      f-2     :     0.000422
      f+3     :     0.000095
      f-3     :     0.000090
 30 C s       :     3.166091  s :     3.166091
      pz      :     1.027991  p :     2.957537
      px      :     0.825752
      py      :     1.103794
      dz2     :     0.010155  d :     0.059894
      dxz     :     0.015990
      dyz     :     0.010707
      dx2y2   :     0.013517
      dxy     :     0.009526
      f0      :     0.000383  f :     0.003474
      f+1     :     0.000153
      f-1     :     0.000725
      f+2     :     0.000928
      f-2     :     0.000426
      f+3     :     0.000488
      f-3     :     0.000372
 31 H s       :     0.820016  s :     0.820016
      pz      :     0.006074  p :     0.021974
      px      :     0.009834
      py      :     0.006066
 32 H s       :     0.769149  s :     0.769149
      pz      :     0.013281  p :     0.021922
      px      :     0.003019
      py      :     0.005621
 33 H s       :     0.809881  s :     0.809881
      pz      :     0.004571  p :     0.023940
      px      :     0.004803
      py      :     0.014566
 34 C s       :     3.254829  s :     3.254829
      pz      :     0.881305  p :     2.602901
      px      :     0.886602
      py      :     0.834995
      dz2     :     0.021462  d :     0.117630
      dxz     :     0.028344
      dyz     :     0.009578
      dx2y2   :     0.018629
      dxy     :     0.039617
      f0      :     0.000860  f :     0.017200
      f+1     :     0.004990
      f-1     :     0.000057
      f+2     :     0.002651
      f-2     :     0.002521
      f+3     :     0.002086
      f-3     :     0.004035
 35 N s       :     3.777166  s :     3.777166
      pz      :     1.160504  p :     3.517394
      px      :     1.228966
      py      :     1.127923
      dz2     :     0.009893  d :     0.051998
      dxz     :     0.013695
      dyz     :     0.004154
      dx2y2   :     0.008084
      dxy     :     0.016172
      f0      :     0.000126  f :     0.002891
      f+1     :     0.000848
      f-1     :     0.000008
      f+2     :     0.000429
      f-2     :     0.000399
      f+3     :     0.000369
      f-3     :     0.000711


                     *******************************
                     * LOEWDIN POPULATION ANALYSIS *
                     *******************************

----------------------
LOEWDIN ATOMIC CHARGES
----------------------
   0 C :   -0.263399
   1 H :    0.156260
   2 H :    0.142801
   3 H :    0.152458
   4 C :   -0.192596
   5 N :   -0.014532
   6 C :   -0.245900
   7 H :    0.132522
   8 H :    0.136815
   9 H :    0.155424
  10 C :   -0.180273
  11 N :   -0.023009
  12 C :   -0.240564
  13 H :    0.137647
  14 H :    0.140044
  15 H :    0.150867
  16 C :   -0.172476
  17 N :   -0.015871
  18 C :   -0.247548
  19 H :    0.161559
  20 H :    0.149059
  21 H :    0.158490
  22 C :   -0.164370
  23 N :   -0.027202
  24 C :   -0.254700
  25 H :    0.155805
  26 H :    0.144075
  27 H :    0.157087
  28 C :   -0.206541
  29 N :    0.008390
  30 C :   -0.248025
  31 H :    0.139943
  32 H :    0.175192
  33 H :    0.146150
  34 C :   -0.168427
  35 N :   -0.035155

-------------------------------
LOEWDIN REDUCED ORBITAL CHARGES
-------------------------------
  0 C s       :     2.813319  s :     2.813319
      pz      :     1.062480  p :     3.157379
      px      :     1.068235
      py      :     1.026665
      dz2     :     0.045335  d :     0.266794
      dxz     :     0.023835
      dyz     :     0.071447
      dx2y2   :     0.064998
      dxy     :     0.061179
      f0      :     0.002428  f :     0.025906
      f+1     :     0.002725
      f-1     :     0.004327
      f+2     :     0.003484
      f-2     :     0.002654
      f+3     :     0.004885
      f-3     :     0.005404
  1 H s       :     0.786015  s :     0.786015
      pz      :     0.011156  p :     0.057725
      px      :     0.034464
      py      :     0.012105
  2 H s       :     0.792378  s :     0.792378
      pz      :     0.033440  p :     0.064821
      px      :     0.018052
      py      :     0.013328
  3 H s       :     0.789300  s :     0.789300
      pz      :     0.025084  p :     0.058242
      px      :     0.016871
      py      :     0.016287
  4 C s       :     2.841008  s :     2.841008
      pz      :     0.822309  p :     2.823045
      px      :     0.805740
      py      :     1.194996
      dz2     :     0.039074  d :     0.466693
      dxz     :     0.001955
      dyz     :     0.154060
      dx2y2   :     0.113111
      dxy     :     0.158493
      f0      :     0.006403  f :     0.061850
      f+1     :     0.001048
      f-1     :     0.010539
      f+2     :     0.011142
      f-2     :     0.001766
      f+3     :     0.016642
      f-3     :     0.014309
  5 N s       :     3.310524  s :     3.310524
      pz      :     1.029611  p :     3.583964
      px      :     1.061615
      py      :     1.492738
      dz2     :     0.011466  d :     0.106271
      dxz     :     0.000900
      dyz     :     0.031558
      dx2y2   :     0.032663
      dxy     :     0.029685
      f0      :     0.001428  f :     0.013774
      f+1     :     0.000217
      f-1     :     0.002297
      f+2     :     0.002451
      f-2     :     0.000267
      f+3     :     0.003467
      f-3     :     0.003646
  6 C s       :     2.786151  s :     2.786151
      pz      :     1.038842  p :     3.163436
      px      :     1.092611
      py      :     1.031983
      dz2     :     0.048946  d :     0.268209
      dxz     :     0.015734
      dyz     :     0.081196
      dx2y2   :     0.075985
      dxy     :     0.046348
      f0      :     0.002654  f :     0.028104
      f+1     :     0.003057
      f-1     :     0.004827
      f+2     :     0.003634
      f-2     :     0.003021
      f+3     :     0.006455
      f-3     :     0.004457
  7 H s       :     0.777866  s :     0.777866
      pz      :     0.016798  p :     0.089611
      px      :     0.057513
      py      :     0.015301
  8 H s       :     0.797625  s :     0.797625
      pz      :     0.034386  p :     0.065561
      px      :     0.018174
      py      :     0.013001
  9 H s       :     0.787544  s :     0.787544
      pz      :     0.023074  p :     0.057032
      px      :     0.014735
      py      :     0.019223
 10 C s       :     2.834099  s :     2.834099
      pz      :     0.840245  p :     2.805501
      px      :     0.819060
      py      :     1.146196
      dz2     :     0.052158  d :     0.482141
      dxz     :     0.016783
      dyz     :     0.140342
      dx2y2   :     0.124624
      dxy     :     0.148234
      f0      :     0.005415  f :     0.058531
      f+1     :     0.001113
      f-1     :     0.010060
      f+2     :     0.009697
      f-2     :     0.004396
      f+3     :     0.013625
      f-3     :     0.014226
 11 N s       :     3.329924  s :     3.329924
      pz      :     1.064243  p :     3.577336
      px      :     1.085850
      py      :     1.427243
      dz2     :     0.012936  d :     0.103632
      dxz     :     0.003491
      dyz     :     0.029460
      dx2y2   :     0.030524
      dxy     :     0.027221
      f0      :     0.001163  f :     0.012117
      f+1     :     0.000201
      f-1     :     0.002149
      f+2     :     0.002076
      f-2     :     0.000871
      f+3     :     0.002812
      f-3     :     0.002846
 12 C s       :     2.832661  s :     2.832661
      pz      :     1.073380  p :     3.141511
      px      :     1.025698
      py      :     1.042434
      dz2     :     0.058283  d :     0.243124
      dxz     :     0.028931
      dyz     :     0.037865
      dx2y2   :     0.055401
      dxy     :     0.062644
      f0      :     0.003615  f :     0.023267
      f+1     :     0.002619
      f-1     :     0.001045
      f+2     :     0.003260
      f-2     :     0.004695
      f+3     :     0.003005
      f-3     :     0.005028
 13 H s       :     0.800889  s :     0.800889
      pz      :     0.013627  p :     0.061464
      px      :     0.029788
      py      :     0.018049
 14 H s       :     0.793155  s :     0.793155
      pz      :     0.041803  p :     0.066801
      px      :     0.012650
      py      :     0.012349
 15 H s       :     0.788924  s :     0.788924
      pz      :     0.017726  p :     0.060209
      px      :     0.011114
      py      :     0.031369
 16 C s       :     2.863535  s :     2.863535
      pz      :     0.841304  p :     2.826498
      px      :     1.030291
      py      :     0.954903
      dz2     :     0.053277  d :     0.426228
      dxz     :     0.078156
      dyz     :     0.054564
      dx2y2   :     0.129871
      dxy     :     0.110359
      f0      :     0.005669  f :     0.056214
      f+1     :     0.006476
      f-1     :     0.004379
      f+2     :     0.002141
      f-2     :     0.010486
      f+3     :     0.014279
      f-3     :     0.012783
 17 N s       :     3.318290  s :     3.318290
      pz      :     1.056332  p :     3.575582
      px      :     1.311108
      py      :     1.208141
      dz2     :     0.012553  d :     0.108540
      dxz     :     0.020146
      dyz     :     0.012185
      dx2y2   :     0.030274
      dxy     :     0.033382
      f0      :     0.001329  f :     0.013459
      f+1     :     0.001534
      f-1     :     0.000986
      f+2     :     0.000404
      f-2     :     0.002342
      f+3     :     0.003384
      f-3     :     0.003479
 18 C s       :     2.823269  s :     2.823269
      pz      :     1.046629  p :     3.141583
      px      :     1.037099
      py      :     1.057856
      dz2     :     0.024619  d :     0.257291
      dxz     :     0.074426
      dyz     :     0.067322
      dx2y2   :     0.030886
      dxy     :     0.060039
      f0      :     0.004255  f :     0.025405
      f+1     :     0.003602
      f-1     :     0.002517
      f+2     :     0.003359
      f-2     :     0.005289
      f+3     :     0.003644
      f-3     :     0.002740
[...]
 13 H s       :     0.786888  s :     0.786888
      pz      :     0.015341  p :     0.066673
      px      :     0.031510
      py      :     0.019823
 14 H s       :     0.782555  s :     0.782555
      pz      :     0.042570  p :     0.071369
      px      :     0.014581
      py      :     0.014218
 15 H s       :     0.776116  s :     0.776116
      pz      :     0.019374  p :     0.064998
      px      :     0.012959
      py      :     0.032665
 16 C s       :     2.863860  s :     2.863860
      pz      :     0.858088  p :     2.840450
      px      :     1.024702
      py      :     0.957660
      dz2     :     0.057293  d :     0.429956
      dxz     :     0.077038
      dyz     :     0.054989
      dx2y2   :     0.122909
      dxy     :     0.117726
      f0      :     0.006491  f :     0.063413
      f+1     :     0.007316
      f-1     :     0.005015
      f+2     :     0.002910
      f-2     :     0.011637
      f+3     :     0.015591
      f-3     :     0.014454
 17 N s       :     3.311362  s :     3.311362
      pz      :     1.037828  p :     3.509554
      px      :     1.285221
      py      :     1.186505
      dz2     :     0.017973  d :     0.135534
      dxz     :     0.025224
      dyz     :     0.017224
      dx2y2   :     0.035082
      dxy     :     0.040030
      f0      :     0.001918  f :     0.018316
      f+1     :     0.002127
      f-1     :     0.001476
      f+2     :     0.000899
      f-2     :     0.003140
      f+3     :     0.004392
      f-3     :     0.004365
 18 C s       :     2.826612  s :     2.826612
      pz      :     1.049927  p :     3.151599
      px      :     1.041665
      py      :     1.060007
      dz2     :     0.032845  d :     0.277064
      dxz     :     0.074796
      dyz     :     0.069331
      dx2y2   :     0.037798
      dxy     :     0.062294
      f0      :     0.005064  f :     0.031914
      f+1     :     0.004659
      f-1     :     0.003426
      f+2     :     0.004563
      f-2     :     0.006062
      f+3     :     0.004657
      f-3     :     0.003483
 19 H s       :     0.771811  s :     0.771811
      pz      :     0.018445  p :     0.058114
      px      :     0.017216
      py      :     0.022453
 20 H s       :     0.777635  s :     0.777635
      pz      :     0.022186  p :     0.065083
      px      :     0.026773
      py      :     0.016124
 21 H s       :     0.768617  s :     0.768617
      pz      :     0.022808  p :     0.066896
      px      :     0.017252
      py      :     0.026835
 22 C s       :     2.842261  s :     2.842261
      pz      :     0.953016  p :     2.817195
      px      :     0.956294
      py      :     0.907886
      dz2     :     0.100091  d :     0.467437
      dxz     :     0.105172
      dyz     :     0.083266
      dx2y2   :     0.089676
      dxy     :     0.089232
      f0      :     0.006514  f :     0.065074
      f+1     :     0.011778
      f-1     :     0.007089
      f+2     :     0.011441
      f-2     :     0.013944
      f+3     :     0.007161
      f-3     :     0.007147
 23 N s       :     3.305949  s :     3.305949
      pz      :     1.193376  p :     3.522676
      px      :     1.194347
      py      :     1.134952
      dz2     :     0.026111  d :     0.133994
      dxz     :     0.031626
      dyz     :     0.024179
      dx2y2   :     0.026645
      dxy     :     0.025433
      f0      :     0.001892  f :     0.017501
      f+1     :     0.003063
      f-1     :     0.001894
      f+2     :     0.002912
      f-2     :     0.003771
      f+3     :     0.002000
      f-3     :     0.001968
 24 C s       :     2.832037  s :     2.832037
      pz      :     1.047641  p :     3.151099
      px      :     1.055531
      py      :     1.047927
      dz2     :     0.052967  d :     0.278536
      dxz     :     0.072108
      dyz     :     0.063942
      dx2y2   :     0.025026
      dxy     :     0.064493
      f0      :     0.006132  f :     0.031749
      f+1     :     0.005449
      f-1     :     0.003373
      f+2     :     0.005124
      f-2     :     0.005579
      f+3     :     0.003988
      f-3     :     0.002103
 25 H s       :     0.772868  s :     0.772868
      pz      :     0.016145  p :     0.062651
      px      :     0.021257
      py      :     0.025249
 26 H s       :     0.784049  s :     0.784049
      pz      :     0.023417  p :     0.062194
      px      :     0.020864
      py      :     0.017912
 27 H s       :     0.772797  s :     0.772797
      pz      :     0.014023  p :     0.063814
      px      :     0.017328
      py      :     0.032464
 28 C s       :     2.838323  s :     2.838323
      pz      :     1.062830  p :     2.852951
      px      :     0.916401
      py      :     0.873720
      dz2     :     0.140533  d :     0.469032
      dxz     :     0.111613
      dyz     :     0.110083
      dx2y2   :     0.049107
      dxy     :     0.057696
      f0      :     0.014135  f :     0.068781
      f+1     :     0.015110
      f-1     :     0.011358
      f+2     :     0.011217
      f-2     :     0.011718
      f+3     :     0.002461
      f-3     :     0.002781
 29 N s       :     3.293872  s :     3.293872
      pz      :     1.327930  p :     3.504514
      px      :     1.107663
      py      :     1.068921
      dz2     :     0.040061  d :     0.137836
      dxz     :     0.034288
      dyz     :     0.033465
      dx2y2   :     0.015271
      dxy     :     0.014751
      f0      :     0.004108  f :     0.019561
      f+1     :     0.004106
      f-1     :     0.003734
      f+2     :     0.002914
      f-2     :     0.003174
      f+3     :     0.000764
      f-3     :     0.000760
 30 C s       :     2.824863  s :     2.824863
      pz      :     1.060516  p :     3.159096
      px      :     1.029773
      py      :     1.068808
      dz2     :     0.047827  d :     0.270816
      dxz     :     0.066540
      dyz     :     0.037883
      dx2y2   :     0.059866
      dxy     :     0.058699
      f0      :     0.003139  f :     0.030978
      f+1     :     0.005356
      f-1     :     0.003216
      f+2     :     0.004761
      f-2     :     0.004335
      f+3     :     0.004736
      f-3     :     0.005434
 31 H s       :     0.785756  s :     0.785756
      pz      :     0.020733  p :     0.065149
      px      :     0.024937
      py      :     0.019479
 32 H s       :     0.757742  s :     0.757742
      pz      :     0.033650  p :     0.061170
      px      :     0.010495
      py      :     0.017025
 33 H s       :     0.775454  s :     0.775454
      pz      :     0.015674  p :     0.071177
      px      :     0.015334
      py      :     0.040169
 34 C s       :     2.842413  s :     2.842413
      pz      :     0.888200  p :     2.817426
      px      :     1.102599
      py      :     0.826627
      dz2     :     0.077652  d :     0.470888
      dxz     :     0.131345
      dyz     :     0.034047
      dx2y2   :     0.104813
      dxy     :     0.123031
      f0      :     0.005583  f :     0.066386
      f+1     :     0.015137
      f-1     :     0.000565
      f+2     :     0.013690
      f-2     :     0.007845
      f+3     :     0.011190
      f-3     :     0.012376
 35 N s       :     3.298768  s :     3.298768
      pz      :     1.111319  p :     3.538108
      px      :     1.383051
      py      :     1.043738
      dz2     :     0.021135  d :     0.134116
      dxz     :     0.038307
      dyz     :     0.010929
      dx2y2   :     0.033545
      dxy     :     0.030199
      f0      :     0.001745  f :     0.018432
      f+1     :     0.003803
      f-1     :     0.000378
      f+2     :     0.003854
      f-2     :     0.002042
      f+3     :     0.003330
      f-3     :     0.003279


                      *****************************
                      * MAYER POPULATION ANALYSIS *
                      *****************************

  NA   - Mulliken gross atomic population
  ZA   - Total nuclear charge
  QA   - Mulliken gross atomic charge
  VA   - Mayer's total valence
  BVA  - Mayer's bonded valence
  FA   - Mayer's free valence

  ATOM       NA         ZA         QA         VA         BVA        FA
  0 C      6.3298     6.0000    -0.3298     3.9515     3.6556     0.2959
  1 H      0.8152     1.0000     0.1848     0.9694     0.9193     0.0501
  2 H      0.8105     1.0000     0.1895     0.9625     0.9163     0.0462
  3 H      0.8413     1.0000     0.1587     0.9715     0.9206     0.0509
  4 C      6.0466     6.0000    -0.0466     4.1320     3.7131     0.4189
  5 N      7.1652     7.0000    -0.1652     3.2847     2.8012     0.4835
  6 C      6.2563     6.0000    -0.2563     3.8947     3.6121     0.2826
  7 H      0.8140     1.0000     0.1860     0.9794     0.9328     0.0466
  8 H      0.8405     1.0000     0.1595     0.9707     0.9243     0.0463
  9 H      0.8357     1.0000     0.1643     0.9684     0.9185     0.0499
 10 C      6.0791     6.0000    -0.0791     4.0797     3.6424     0.4373
 11 N      7.1902     7.0000    -0.1902     3.2782     2.7769     0.5013
 12 C      6.2949     6.0000    -0.2949     3.9130     3.6268     0.2862
 13 H      0.8351     1.0000     0.1649     0.9652     0.9186     0.0466
 14 H      0.8201     1.0000     0.1799     0.9794     0.9316     0.0478
 15 H      0.8118     1.0000     0.1882     0.9658     0.9192     0.0466
 16 C      6.0801     6.0000    -0.0801     4.0497     3.6079     0.4418
 17 N      7.1566     7.0000    -0.1566     3.2685     2.7793     0.4892
 18 C      6.2854     6.0000    -0.2854     3.9093     3.6207     0.2885
 19 H      0.8229     1.0000     0.1771     0.9654     0.9159     0.0495
 20 H      0.8266     1.0000     0.1734     0.9604     0.9124     0.0480
 21 H      0.7936     1.0000     0.2064     0.9684     0.9208     0.0476
 22 C      6.0365     6.0000    -0.0365     3.9933     3.5611     0.4322
 23 N      7.2163     7.0000    -0.2163     3.2448     2.7455     0.4993
 24 C      6.2942     6.0000    -0.2942     3.9171     3.6258     0.2913
 25 H      0.8251     1.0000     0.1749     0.9662     0.9177     0.0486
 26 H      0.8296     1.0000     0.1704     0.9602     0.9112     0.0490
 27 H      0.8256     1.0000     0.1744     0.9739     0.9215     0.0524
 28 C      6.0974     6.0000    -0.0974     4.0859     3.6646     0.4213
 29 N      7.1304     7.0000    -0.1304     3.2889     2.8139     0.4749
 30 C      6.2856     6.0000    -0.2856     3.8910     3.6002     0.2908
 31 H      0.8270     1.0000     0.1730     0.9609     0.9132     0.0477
 32 H      0.7863     1.0000     0.2137     0.9685     0.9190     0.0495
 33 H      0.8191     1.0000     0.1809     0.9704     0.9229     0.0475
 34 C      6.0326     6.0000    -0.0326     3.9618     3.5400     0.4219
 35 N      7.2427     7.0000    -0.2427     3.2081     2.7169     0.4913

  Mayer bond orders larger than 0.100000
B(  0-C ,  1-H ) :   0.9014 B(  0-C ,  2-H ) :   0.9122 B(  0-C ,  3-H ) :   0.9016 
B(  0-C ,  4-C ) :   0.9619 B(  4-C ,  5-N ) :   2.7478 B(  6-C ,  7-H ) :   0.8969 
B(  6-C ,  8-H ) :   0.9129 B(  6-C ,  9-H ) :   0.9097 B(  6-C , 10-C ) :   0.9250 
B( 10-C , 11-N ) :   2.7206 B( 12-C , 13-H ) :   0.9173 B( 12-C , 14-H ) :   0.9148 
B( 12-C , 15-H ) :   0.9092 B( 12-C , 16-C ) :   0.8890 B( 16-C , 17-N ) :   2.7301 
B( 18-C , 19-H ) :   0.9016 B( 18-C , 20-H ) :   0.9133 B( 18-C , 21-H ) :   0.9017 
B( 18-C , 22-C ) :   0.9044 B( 22-C , 23-N ) :   2.6744 B( 24-C , 25-H ) :   0.9115 
B( 24-C , 26-H ) :   0.9156 B( 24-C , 27-H ) :   0.8980 B( 24-C , 28-C ) :   0.9144 
B( 28-C , 29-N ) :   2.7661 B( 30-C , 31-H ) :   0.9141 B( 30-C , 32-H ) :   0.8842 
B( 30-C , 33-H ) :   0.9075 B( 30-C , 34-C ) :   0.9000 B( 34-C , 35-N ) :   2.6396 



----------------------------------
MP2 DERIVATIVE INTEGRAL GENERATION
----------------------------------


Input Wavefunction Amplitudes       ... orcacalc.mp2tsaa.tmp
Input Correlated Electron Density   ... orcacalc.pmp2re
Input Energy Weighted Density       ... orcacalc.wmp2.tmp
Input SCF Electron Density          ... orcacalc.scfp

One-Electron Terms    ...
                        ... One-Electron Terms done
Prescreening matrices              ... done

Batch handling in the gradient evaluation:
Memory available                      ... 8000.0 MB
Memory per occupied orbital in Q2     ...  162.4 MB
Memory per occupied orbital in Q3     ...    0.2 MB
Total memory requirement per |i>      ...  162.7 MB
Max. Number of orbitals possible      ...     49
Number of orbitals treated per batch  ...     48
Number of batches to be done          ...      1
Batch   0: i=   18 ...    65

---------------------------------------
MP2 TOTAL ENERGY:     -794.893448598 Eh
---------------------------------------

The final MP2 gradient
  0:   0.02457997  -0.04884757  -0.03205974
  1:  -0.01665609   0.01127339  -0.00397379
  2:  -0.01045555   0.00588802   0.00696113
  3:   0.00700498   0.01144027   0.01727919
  4:  -0.00678178   0.01754125   0.02329356
  5:   0.00255723   0.00695758  -0.01304869
  6:   0.02449648   0.04183457  -0.02877879
  7:  -0.05130427  -0.00190624   0.00834422
  8:   0.00985108   0.00805323   0.01564376
  9:   0.01271270  -0.01083147   0.01414621
 10:   0.02521038  -0.08774502  -0.02477043
 11:  -0.01152945   0.05017896   0.01467235
 12:   0.03288078  -0.01289534  -0.02378559
 13:  -0.00234839   0.00973654   0.00237829
 14:  -0.00597017   0.00144243   0.00488397
 15:  -0.01114897  -0.00794311   0.00481557
 16:  -0.00055283   0.00184248   0.01298011
 17:  -0.01420931   0.00898996  -0.00134316
 18:  -0.00825207   0.00966370   0.02160490
 19:  -0.02123984  -0.01915640  -0.01997800
 20:   0.00776590   0.00907618   0.00726763
 21:   0.00654741   0.00658518   0.00215535
 22:   0.04211540  -0.02548437  -0.03381453
 23:  -0.03718332   0.01858679   0.02551149
 24:   0.00122310  -0.01199399  -0.02386704
 25:  -0.00003935   0.01817865  -0.01032313
 26:   0.00929115   0.01094587   0.00884480
 27:  -0.00492755  -0.02823769   0.01073209
 28:   0.01015900   0.00276932  -0.00264834
 29:  -0.01659353   0.00321515   0.01704353
 30:   0.00512670  -0.02184962  -0.02630016
 31:  -0.01035348   0.00086868  -0.00039875
 32:   0.00625101   0.01933451   0.03025008
 33:   0.00654610   0.00757717  -0.00925661
 34:  -0.01092543  -0.00563172   0.00757575
 35:   0.00615203   0.00054267  -0.00203722

-----------------------------------
NORM OF THE MP2 GRADIENT:  0.204146
-----------------------------------

-------------------------   --------------------
FINAL SINGLE POINT ENERGY      -794.893448598197
-------------------------   --------------------


                            ***************************************
                            *     ORCA property calculations      *
                            ***************************************

                                    ---------------------
                                    Active property flags
                                    ---------------------
   (+) Dipole Moment


------------------------------------------------------------------------------
                       ORCA ELECTRIC PROPERTIES CALCULATION
------------------------------------------------------------------------------

Dipole Moment Calculation                       ... on
Quadrupole Moment Calculation                   ... off
Polarizability Calculation                      ... off
GBWName                                         ... orcacalc.gbw
Electron density file                           ... orcacalc.scfp
The origin for moment calculation is the CENTER OF MASS  = (-0.001738, -0.015471 -0.004337)

-------------
DIPOLE MOMENT
-------------
                                X             Y             Z
Electronic contribution:     -0.44163       1.68860      -0.04729
Nuclear contribution   :      0.77651      -2.85136       0.28387
                        -----------------------------------------
Total Dipole Moment    :      0.33487      -1.16276       0.23658
                        -----------------------------------------
Magnitude (a.u.)       :      1.23293
Magnitude (Debye)      :      3.13386



--------------------
Rotational spectrum 
--------------------
 
Rotational constants in cm-1:     0.008849     0.007364     0.004779 
Rotational constants in MHz :   265.297640   220.762207   143.277233 

 Dipole components along the rotational axes: 
x,y,z [a.u.] :    -0.978733    -0.672492     0.331597 
x,y,z [Debye]:    -2.487743    -1.709340     0.842852 

 

                         *** MP2 UNRELAXED DENSITY ***

------------------------------------------------------------------------------
                       ORCA ELECTRIC PROPERTIES CALCULATION
------------------------------------------------------------------------------

Dipole Moment Calculation                       ... on
Quadrupole Moment Calculation                   ... off
Polarizability Calculation                      ... off
GBWName                                         ... orcacalc.gbw
Electron density file                           ... orcacalc.pmp2ur
The origin for moment calculation is the CENTER OF MASS  = (-0.001738, -0.015471 -0.004337)

-------------
DIPOLE MOMENT
-------------
                                X             Y             Z
Electronic contribution:     -0.45518       1.71931      -0.05753
Nuclear contribution   :      0.77651      -2.85136       0.28387
                        -----------------------------------------
Total Dipole Moment    :      0.32132      -1.13206       0.22634
                        -----------------------------------------
Magnitude (a.u.)       :      1.19834
Magnitude (Debye)      :      3.04595



--------------------
Rotational spectrum 
--------------------
 
Rotational constants in cm-1:     0.008849     0.007364     0.004779 
Rotational constants in MHz :   265.297640   220.762207   143.277233 

 Dipole components along the rotational axes: 
x,y,z [a.u.] :    -0.952830    -0.654098     0.316700 
x,y,z [Debye]:    -2.421900    -1.662586     0.804988 

 

                           *** MP2 RELAXED DENSITY ***

------------------------------------------------------------------------------
                       ORCA ELECTRIC PROPERTIES CALCULATION
------------------------------------------------------------------------------

Dipole Moment Calculation                       ... on
Quadrupole Moment Calculation                   ... off
Polarizability Calculation                      ... off
GBWName                                         ... orcacalc.gbw
Electron density file                           ... orcacalc.pmp2re
The origin for moment calculation is the CENTER OF MASS  = (-0.001738, -0.015471 -0.004337)

-------------
DIPOLE MOMENT
-------------
                                X             Y             Z
Electronic contribution:     -0.49211       1.82951      -0.05171
Nuclear contribution   :      0.77651      -2.85136       0.28387
                        -----------------------------------------
Total Dipole Moment    :      0.28440      -1.02185       0.23216
                        -----------------------------------------
Magnitude (a.u.)       :      1.08580
Magnitude (Debye)      :      2.75987



--------------------
Rotational spectrum 
--------------------
 
Rotational constants in cm-1:     0.008849     0.007364     0.004779 
Rotational constants in MHz :   265.297640   220.762207   143.277233 

 Dipole components along the rotational axes: 
x,y,z [a.u.] :    -0.873124    -0.570661     0.301582 
x,y,z [Debye]:    -2.219305    -1.450506     0.766560 

 

Timings for individual modules:

Sum of individual times         ...      897.999 sec (=  14.967 min)
GTO integral calculation        ...        1.350 sec (=   0.022 min)   0.2 %
SCF iterations                  ...       45.798 sec (=   0.763 min)   5.1 %
MP2 module                      ...      850.851 sec (=  14.181 min)  94.7 %
                             ****ORCA TERMINATED NORMALLY****
TOTAL RUN TIME: 0 days 0 hours 14 minutes 59 seconds 696 msec
