 6
 energy=-3604.9833973152658 cutoff=4.00000000 nneightol=1.20000000 pbc="T T T" Lattice="200.00000000       0.00000000       0.00000000       0.00000000     200.00000000       0.00000000       0.00000000       0.00000000     200.00000000" Properties=species:S:1:pos:R:3:forces:R:3:Z:I:1:map_shift:I:3:n_neighb:I:1:force:R:3
 C              -0.25003411      1.06969547      0.64162048     -0.34748153      1.51873430     -0.75402080       6       0       0       0       5     -0.34827234      1.52399203     -0.75793368
 H              -1.20968619      1.47354821      0.28022787      0.18812969     -0.09900291      0.43285142       1       0       0       0       5      0.19547458     -0.10201366      0.43437327
 H               0.49276414      1.84496849      0.40984748     -0.05818613     -0.22583441      0.10475703       1       0       0       0       5     -0.06424552     -0.23230043      0.10556483
 H              -0.26468691      0.92535515      1.71260307     -0.09389978     -0.30041080      0.15894510       1       0       0       0       5     -0.09331438     -0.30185986      0.15657073
 C               0.02880060     -0.11491122     -0.11804364     -0.04641664      0.69661680      1.12886967       6       0       0       0       5     -0.04661229      0.69943422      1.13124654
 N               0.26032549     -1.12403522     -0.62181897      0.35785439     -1.59010350     -1.07140294       7       0       0       0       5      0.35696995     -1.58725230     -1.06982169
 6
 energy=-3604.9823741225114 cutoff=4.00000000 nneightol=1.20000000 pbc="T T T" Lattice="200.00000000       0.00000000       0.00000000       0.00000000     200.00000000       0.00000000       0.00000000       0.00000000     200.00000000" Properties=species:S:1:pos:R:3:forces:R:3:Z:I:1:map_shift:I:3:n_neighb:I:1:force:R:3
 C               0.15153759     -0.95018990     -0.87624499      0.40505522      0.11159566      0.02562207       6       0       0       0       5      0.40574927      0.11276501      0.02525942
 H              -0.48650412     -1.77711977     -0.59993411     -0.05559445     -0.29257254      0.50342872       1       0       0       0       5     -0.05034713     -0.28327757      0.50112201
 H               1.18437613     -1.32929138     -1.01415990     -0.57978381      0.43331936      0.24236506       1       0       0       0       5     -0.58873325      0.43595821      0.24304737
 H              -0.24887073     -0.65400880     -1.83913558      0.18073571      0.44432214     -0.21134161       1       0       0       0       5      0.18410751      0.44140191     -0.19984617
 C               0.03129860      0.14375126      0.11168933      0.03962276     -1.41548393     -1.16658312       6       0       0       0       5      0.03824374     -1.41963606     -1.17064522
 N              -0.18907823      0.96205151      0.90403555      0.00996457      0.71881931      0.60650888       7       0       0       0       5      0.01097987      0.71278849      0.60106258
 6
 energy=-3604.9407113379516 cutoff=4.00000000 nneightol=1.20000000 pbc="T T T" Lattice="200.00000000       0.00000000       0.00000000       0.00000000     200.00000000       0.00000000       0.00000000       0.00000000     200.00000000" Properties=species:S:1:pos:R:3:forces:R:3:Z:I:1:map_shift:I:3:n_neighb:I:1:force:R:3
 C               0.44960743     -1.06476622     -0.55453784     -0.31815090     -0.37287221     -0.51131121       6       0       0       0       5     -0.31898719     -0.36777883     -0.50996645
 H              -0.29171368     -1.70196098     -1.10145133      0.35305466      0.70351198      0.83740733       1       0       0       0       5      0.35546317      0.70706269      0.83926101
 H               0.93921072     -1.61822012      0.23326883      0.30401446     -0.59044052     -0.12272288       1       0       0       0       5      0.30291035     -0.58635944     -0.12640070
 H               1.16752554     -0.73729650     -1.30509402      0.22584726     -0.07166488      0.11298148       1       0       0       0       5      0.22198482     -0.07439657      0.11838835
 C              -0.07807515      0.11535854      0.10140653      0.24446256     -1.69077299     -1.44718357       6       0       0       0       5      0.24750904     -1.70221726     -1.45263496
 N              -0.44916559      1.10601308      0.54490979     -0.80922753      2.02223912      1.13082885       7       0       0       0       5     -0.80888019      2.02368941      1.13135275
 6
 energy=-3604.9433498566955 cutoff=4.00000000 nneightol=1.20000000 pbc="T T T" Lattice="200.00000000       0.00000000       0.00000000       0.00000000     200.00000000       0.00000000       0.00000000       0.00000000     200.00000000" Properties=species:S:1:pos:R:3:forces:R:3:Z:I:1:map_shift:I:3:n_neighb:I:1:force:R:3
 C               0.74998539     -0.92338159     -0.50616710     -1.23669917     -0.90798875      0.74243438       6       0       0       0       5     -1.24469117     -0.90713434      0.74604160
 H               0.74612049     -1.83468209      0.13522759      0.45009427      0.79537596     -0.21962468       1       0       0       0       5      0.45064486      0.80153894     -0.22629472
 H               1.72247914     -0.49475452     -0.66445040      0.48959053     -0.01817616      0.12943808       1       0       0       0       5      0.48696358     -0.01918442      0.13001478
 H               0.35651820     -1.28612317     -1.44896697     -0.12637950      0.25911580     -0.32057545       1       0       0       0       5     -0.12386679      0.26237810     -0.31110855
 C              -0.14506044      0.08518979      0.08501175      2.11792119     -2.26722465     -1.50716227       6       0       0       0       5      2.12455580     -2.27668638     -1.51388663
 N              -0.72196652      0.97885428      0.50345492     -1.69452732      2.13889831      1.17548994       7       0       0       0       5     -1.69360629      2.13908811      1.17523352
 6
 energy=-3604.9582302851004 cutoff=4.00000000 nneightol=1.20000000 pbc="T T T" Lattice="200.00000000       0.00000000       0.00000000       0.00000000     200.00000000       0.00000000       0.00000000       0.00000000     200.00000000" Properties=species:S:1:pos:R:3:forces:R:3:Z:I:1:map_shift:I:3:n_neighb:I:1:force:R:3
 C              -1.15762361     -0.43380998      0.38768263      0.47666868      0.47011751      1.69101262       6       0       0       0       5      0.48466717      0.47214838      1.69224027
 H              -1.66864601     -0.85830045     -0.44124418     -0.61335676     -0.33223438     -0.65336313       1       0       0       0       5     -0.61032165     -0.33132685     -0.65036042
 H              -1.79330861      0.31476146      0.92161225      0.62964881     -0.26838771     -0.81420878       1       0       0       0       5      0.63350323     -0.27324637     -0.81600369
 H              -0.98554651     -1.21112901      1.15668037      0.04681259      0.16724513     -0.55142814       1       0       0       0       5      0.04486443      0.17417640     -0.55788072
 C               0.14502916      0.08543444     -0.06131742     -2.66038800     -0.81679583      1.06997340       6       0       0       0       5     -2.67091153     -0.82013544      1.07308144
 N               1.18825595      0.42496735     -0.39763155      2.12061416      0.78005527     -0.74198649       7       0       0       0       5      2.11819836      0.77838389     -0.74107688
 6
 energy=-3604.9428466438926 cutoff=4.00000000 nneightol=1.20000000 pbc="T T T" Lattice="200.00000000       0.00000000       0.00000000       0.00000000     200.00000000       0.00000000       0.00000000       0.00000000     200.00000000" Properties=species:S:1:pos:R:3:forces:R:3:Z:I:1:map_shift:I:3:n_neighb:I:1:force:R:3
 C               0.42990891      0.91274545      0.79609519      1.75942094     -1.00870915      0.50229589       6       0       0       0       5      1.75726483     -1.01053686      0.49401650
 H              -0.30274951      1.26414846      1.48710753     -0.67059672      0.29752037      0.37669749       1       0       0       0       5     -0.66744861      0.29469020      0.37285056
 H               0.84059529      1.75346412      0.21615528     -0.05692269     -0.39010734      0.27897346       1       0       0       0       5     -0.05999590     -0.39562623      0.28232110
 H               1.24124655      0.39672495      1.42097531     -0.91118720      1.02026575     -0.90765862       1       0       0       0       5     -0.91325214      1.02008624     -0.90892075
 C              -0.09388441     -0.11732093     -0.08601760      0.64046802      1.69691947      1.12297515       6       0       0       0       5      0.64328426      1.70732964      1.13332727
 N              -0.41613460     -0.92770508     -0.83365140     -0.76118235     -1.61588909     -1.37328389       7       0       0       0       5     -0.75985243     -1.61594299     -1.37359467
 6
 energy=-3604.9641761022140 cutoff=4.00000000 nneightol=1.20000000 pbc="T T T" Lattice="200.00000000       0.00000000       0.00000000       0.00000000     200.00000000       0.00000000       0.00000000       0.00000000     200.00000000" Properties=species:S:1:pos:R:3:forces:R:3:Z:I:1:map_shift:I:3:n_neighb:I:1:force:R:3
 C              -1.10379611      0.43944629     -0.44993219     -0.66169864      0.25600682     -1.55512672       6       0       0       0       5     -0.66260475      0.25752336     -1.55452767
 H              -1.32291363      1.44334453     -0.09836046     -0.04056121      0.09866609      0.02544621       1       0       0       0       5     -0.03859801      0.09072751      0.02382648
 H              -1.83767527     -0.25330800     -0.04259915     -0.24522875      0.06971855     -0.15378695       1       0       0       0       5     -0.24046561      0.07363159     -0.15491994
 H              -1.15724403      0.43698859     -1.58281050      0.06443648     -0.06017822      1.36994917       1       0       0       0       5      0.06493164     -0.06025392      1.37377418
 C               0.17364485     -0.00278862      0.02035385     -0.49502276      0.06394437     -0.16157276       6       0       0       0       5     -0.49514444      0.06403112     -0.16041920
 N               1.10823596     -0.49147891      0.49237018      1.37807437     -0.42815710      0.47509156       7       0       0       0       5      1.37188117     -0.42565966      0.47226615
 6
 energy=-3604.9578504261694 cutoff=4.00000000 nneightol=1.20000000 pbc="T T T" Lattice="200.00000000       0.00000000       0.00000000       0.00000000     200.00000000       0.00000000       0.00000000       0.00000000     200.00000000" Properties=species:S:1:pos:R:3:forces:R:3:Z:I:1:map_shift:I:3:n_neighb:I:1:force:R:3
 C              -1.05607737      0.72200533     -0.20406166      0.92154720      0.83456061      1.06072000       6       0       0       0       5      0.93019642      0.83476153      1.06555064
 H              -1.58848542      0.16003823     -0.94467181     -0.91692488      0.08593193     -0.25311227       1       0       0       0       5     -0.91672846      0.08508677     -0.25247859
 H              -0.78168531      1.73631340     -0.55661204     -0.22772057     -0.63796016     -0.01517774       1       0       0       0       5     -0.22763136     -0.64429761     -0.01290209
 H              -1.55078938      0.84364087      0.78242556     -0.20081448     -0.22078579     -0.85716832       1       0       0       0       5     -0.19883963     -0.22197579     -0.86178475
 C               0.14696662     -0.06182469      0.03515595     -0.03317546      0.16468997     -0.04889930       6       0       0       0       5     -0.03714583      0.16795755     -0.05115226
 N               1.06163789     -0.76321942      0.19655145      0.45708767     -0.22643656      0.11363711       7       0       0       0       5      0.45014885     -0.22153245      0.11276706
 6
 energy=-3604.9444270995095 cutoff=4.00000000 nneightol=1.20000000 pbc="T T T" Lattice="200.00000000       0.00000000       0.00000000       0.00000000     200.00000000       0.00000000       0.00000000       0.00000000     200.00000000" Properties=species:S:1:pos:R:3:forces:R:3:Z:I:1:map_shift:I:3:n_neighb:I:1:force:R:3
 C               0.25274371     -0.37466375      1.17574592      0.67298270     -0.78685790      1.79417403       6       0       0       0       5      0.67622096     -0.78987819      1.80354448
 H              -0.43634097      0.09792795      1.90540663      0.45990663     -0.08439698     -0.54790778       1       0       0       0       5      0.46106381     -0.08685355     -0.55309823
 H               1.31535271     -0.13922429      1.42791005     -0.88524323     -0.21621488     -0.05608348       1       0       0       0       5     -0.88965716     -0.21879618     -0.05842661
 H               0.09266746     -1.45506220      1.23739995      0.23257224      0.01907604      0.33134992       1       0       0       0       5      0.23402119      0.02728069      0.33046388
 C              -0.01989463     -0.00667252     -0.15904900     -0.28301420      0.90754446     -0.34659450       6       0       0       0       5     -0.28577431      0.90872467     -0.35217687
 N              -0.26957058      0.43464223     -1.20063959     -0.19720466      0.16084925     -1.17493818       7       0       0       0       5     -0.19587449      0.15952257     -1.17030665
 6
 energy=-3604.9430845168208 cutoff=4.00000000 nneightol=1.20000000 pbc="T T T" Lattice="200.00000000       0.00000000       0.00000000       0.00000000     200.00000000       0.00000000       0.00000000       0.00000000     200.00000000" Properties=species:S:1:pos:R:3:forces:R:3:Z:I:1:map_shift:I:3:n_neighb:I:1:force:R:3
 C              -1.11342650      0.55546598     -0.21951172     -2.16795126      1.05740791     -0.41904100       6       0       0       0       5     -2.17721588      1.06260394     -0.42052908
 H              -1.43742130      0.38580508     -1.24373308      0.45829609     -0.09011974     -0.36605313       1       0       0       0       5      0.46173321     -0.09070062     -0.35941557
 H              -1.14675712      1.65239952     -0.08706135      0.45572396     -0.52484344      0.15141639       1       0       0       0       5      0.45669303     -0.53031314      0.15069660
 H              -1.97147853      0.15790673      0.32757378      0.36639611     -0.13016005      0.49445917       1       0       0       0       5      0.37293190     -0.12859405      0.49024726
 C               0.12757647     -0.07132685      0.07044891      0.75407582     -0.19979273     -0.05591584       6       0       0       0       5      0.76016416     -0.20497809     -0.05370196
 N               1.17310676     -0.57314006      0.19999891      0.13345929     -0.11249246      0.19513389       7       0       0       0       5      0.12569358     -0.10801804      0.19270275
 6
 energy=-3604.9215590559406 cutoff=4.00000000 nneightol=1.20000000 pbc="T T T" Lattice="200.00000000       0.00000000       0.00000000       0.00000000     200.00000000       0.00000000       0.00000000       0.00000000     200.00000000" Properties=species:S:1:pos:R:3:forces:R:3:Z:I:1:map_shift:I:3:n_neighb:I:1:force:R:3
 C               0.01100050     -1.10905987      0.68259063     -0.25325831      0.93879262      0.46767136       6       0       0       0       5     -0.24994270      0.94372791      0.46662433
 H               0.62055229     -0.97668579      1.60065320     -0.68327123     -0.06218008     -0.30784592       1       0       0       0       5     -0.68752457     -0.06306022     -0.31760459
 H               0.56030301     -1.83360470      0.08770078     -0.40709462     -0.30954902     -0.14510073       1       0       0       0       5     -0.41001801     -0.30288523     -0.14039387
 H              -1.05989790     -1.38861014      0.91363145      1.42454964      0.03862363     -0.22782752       1       0       0       0       5      1.42736044      0.04021418     -0.22926387
 C               0.00828440      0.17159405     -0.06239139     -0.04223860     -3.16752888      1.81411705       6       0       0       0       5     -0.04034678     -3.18271016      1.82429429
 N              -0.02523909      1.10594988     -0.71900761     -0.03868636      2.56184172     -1.60101423       7       0       0       0       5     -0.03952837      2.56471352     -1.60365629
 6
 energy=-3604.9222762143136 cutoff=4.00000000 nneightol=1.20000000 pbc="T T T" Lattice="200.00000000       0.00000000       0.00000000       0.00000000     200.00000000       0.00000000       0.00000000       0.00000000     200.00000000" Properties=species:S:1:pos:R:3:forces:R:3:Z:I:1:map_shift:I:3:n_neighb:I:1:force:R:3
 C               0.11556074      0.20151224      1.24056412      1.66438319     -0.60707658      1.40743534       6       0       0       0       5      1.66446725     -0.60488341      1.41535046
 H               0.96677187     -0.43181732      1.62735514     -0.98310302      0.66149758     -0.02884521       1       0       0       0       5     -0.98525659      0.66441405     -0.03122331
 H              -0.80052962     -0.00550441      1.79560747      0.13740491      0.10772666     -0.09052855       1       0       0       0       5      0.13959557      0.10818049     -0.09308429
 H               0.43190695      1.23929133      1.30850662     -0.16836150      0.15547770      0.46546329       1       0       0       0       5     -0.16849954      0.15129298      0.46490203
 C               0.00800317     -0.07034931     -0.14289287     -0.58952520      0.03012613     -0.10205995       6       0       0       0       5     -0.58971106      0.02779529     -0.10624834
 N              -0.14898813     -0.17016979     -1.28163684     -0.06079888     -0.34775150     -1.65146442       7       0       0       0       5     -0.06059563     -0.34679940     -1.64969656
 6
 energy=-3604.9314465176981 cutoff=4.00000000 nneightol=1.20000000 pbc="T T T" Lattice="200.00000000       0.00000000       0.00000000       0.00000000     200.00000000       0.00000000       0.00000000       0.00000000     200.00000000" Properties=species:S:1:pos:R:3:forces:R:3:Z:I:1:map_shift:I:3:n_neighb:I:1:force:R:3
 C               0.74552036     -0.98295336      0.30440094      1.37711741     -0.07376804      1.48853617       6       0       0       0       5      1.38183472     -0.07283289      1.48976380
 H               0.40622482     -1.97526096      0.01592025     -0.45571110      0.26741892     -0.26146424       1       0       0       0       5     -0.45687177      0.27272762     -0.26178379
 H               0.87106866     -0.98855003      1.42287712      0.05003779     -0.05323212     -1.05050964       1       0       0       0       5      0.05045633     -0.05201919     -1.05645087
 H               1.72433111     -0.80845971     -0.15549227      0.00750197     -0.23261852      0.22465118       1       0       0       0       5      0.00005164     -0.23256292      0.22914065
 C              -0.07418113      0.14438249     -0.03561057      0.48566343     -1.98303648      0.20076820       6       0       0       0       5      0.48957789     -1.99218988      0.20111808
 N              -0.79161306      0.99045553     -0.32281109     -1.46460948      2.07523676     -0.60198168       7       0       0       0       5     -1.46504881      2.07687725     -0.60178788
 6
 energy=-3604.9161900058771 cutoff=4.00000000 nneightol=1.20000000 pbc="T T T" Lattice="200.00000000       0.00000000       0.00000000       0.00000000     200.00000000       0.00000000       0.00000000       0.00000000     200.00000000" Properties=species:S:1:pos:R:3:forces:R:3:Z:I:1:map_shift:I:3:n_neighb:I:1:force:R:3
 C              -0.80687685      0.98221221     -0.29237426     -1.29032981     -1.94497952     -0.83257932       6       0       0       0       5     -1.28745902     -1.95213276     -0.83088109
 H              -0.28457833      1.91648268     -0.21120651      0.05820824      0.44897018      0.17736139       1       0       0       0       5      0.05925186      0.44618597      0.17689473
 H              -1.64329146      0.83789647      0.44793004      0.69293601      0.68846589     -0.83756777       1       0       0       0       5      0.69607466      0.68712562     -0.84012203
 H              -1.20515770      0.83441442     -1.34673234      0.30830203      0.45768982      1.32594680       1       0       0       0       5      0.31018753      0.45688411      1.32916792
 C               0.09573358     -0.14509493     -0.02509990      0.61408592      0.11347153      0.58049652       6       0       0       0       5      0.60729751      0.12391153      0.58083388
 N               0.83519759     -0.97600697      0.35208465     -0.38320239      0.23638210     -0.41365865       7       0       0       0       5     -0.38535255      0.23802552     -0.41589341
 6
 energy=-3604.9379594656371 cutoff=4.00000000 nneightol=1.20000000 pbc="T T T" Lattice="200.00000000       0.00000000       0.00000000       0.00000000     200.00000000       0.00000000       0.00000000       0.00000000     200.00000000" Properties=species:S:1:pos:R:3:forces:R:3:Z:I:1:map_shift:I:3:n_neighb:I:1:force:R:3
 C              -1.07458874      0.63011335     -0.30406267      0.27997104      0.69692533     -1.32278022       6       0       0       0       5      0.28738873      0.69392692     -1.32986244
 H              -1.45400609      0.88371886      0.65182969     -0.61238231      0.44410565      0.96606997       1       0       0       0       5     -0.61223983      0.44487699      0.96573913
 H              -1.86918309      0.12207917     -0.86720723      0.54262828     -0.03279648      0.05567313       1       0       0       0       5      0.54671010     -0.03124473      0.05991252
 H              -0.77090614      1.56959345     -0.82361783     -0.44211870     -0.66189559      0.27679470       1       0       0       0       5     -0.44364429     -0.66600901      0.28169020
 C               0.13076533     -0.12802850     -0.04401730     -0.11627558     -0.12721562      0.18681277       6       0       0       0       5     -0.10731863     -0.13321282      0.19341056
 N               1.10385977     -0.61581865      0.37321732      0.34817727     -0.31912381     -0.16257035       7       0       0       0       5      0.32910391     -0.30833734     -0.17088998
 6
 energy=-3604.9363497188097 cutoff=4.00000000 nneightol=1.20000000 pbc="T T T" Lattice="200.00000000       0.00000000       0.00000000       0.00000000     200.00000000       0.00000000       0.00000000       0.00000000     200.00000000" Properties=species:S:1:pos:R:3:forces:R:3:Z:I:1:map_shift:I:3:n_neighb:I:1:force:R:3
 C               0.84508202      0.46140906      0.86362409     -0.45487601      0.34441164     -1.57450204       6       0       0       0       5     -0.45863502      0.34399888     -1.58596321
 H               0.26923288      0.92658435      1.62765504     -0.49526444      0.49544596      0.58746832       1       0       0       0       5     -0.49766396      0.49656416      0.59054053
 H               1.40856398      1.19557518      0.30412285      0.57760094      0.31277472      0.37908399       1       0       0       0       5      0.57699578      0.31078786      0.38021652
 H               1.45132064     -0.28255306      1.29260124      1.00159902     -0.88850133      0.45093450       1       0       0       0       5      1.00361010     -0.89021925      0.45227270
 C              -0.04593789     -0.10204894     -0.14005991     -0.94953932     -0.14048457      0.29863314       6       0       0       0       5     -0.95465705     -0.14167715      0.29660765
 N              -0.91037124     -0.44049771     -0.85242097      0.32047981     -0.12364642     -0.14161740       7       0       0       0       5      0.33035015     -0.11945451     -0.13367418
 6
 energy=-3604.9130163470300 cutoff=4.00000000 nneightol=1.20000000 pbc="T T T" Lattice="200.00000000       0.00000000       0.00000000       0.00000000     200.00000000       0.00000000       0.00000000       0.00000000     200.00000000" Properties=species:S:1:pos:R:3:forces:R:3:Z:I:1:map_shift:I:3:n_neighb:I:1:force:R:3
 C              -0.96117766     -0.76270477      0.32116829     -0.37324964      0.36968507      2.62548322       6       0       0       0       5     -0.37424882      0.36761147      2.63238793
 H              -0.54370921     -1.67295245      0.71691622      0.07825513     -0.58191988      0.02180553       1       0       0       0       5      0.07783039     -0.57906264      0.02054378
 H              -1.67342479     -0.97637625     -0.43103895     -0.73496943     -0.00590325     -0.75502507       1       0       0       0       5     -0.73763103     -0.00728138     -0.75883988
 H              -1.39783535     -0.23520527      1.21536257     -0.20795855     -0.67667686     -0.94277835       1       0       0       0       5     -0.20683280     -0.67728728     -0.94336516
 C               0.10518160      0.08420024     -0.06267139      1.01276070      0.70090900     -0.85557475       6       0       0       0       5      1.02355039      0.70797648     -0.85983655
 N               0.99407780      0.78933152     -0.32966672      0.22516129      0.19390593     -0.09391006       7       0       0       0       5      0.21733189      0.18804335     -0.09089013
 6
 energy=-3604.9323782318611 cutoff=4.00000000 nneightol=1.20000000 pbc="T T T" Lattice="200.00000000       0.00000000       0.00000000       0.00000000     200.00000000       0.00000000       0.00000000       0.00000000     200.00000000" Properties=species:S:1:pos:R:3:forces:R:3:Z:I:1:map_shift:I:3:n_neighb:I:1:force:R:3
 C               0.77963494     -0.71899487     -0.72066226      1.54682411      0.39840686      0.54177416       6       0       0       0       5      1.54414425      0.39698296      0.54764365
 H               1.75298690     -0.12793692     -0.85713313     -1.43707400     -1.06087684     -0.08372541       1       0       0       0       5     -1.43852589     -1.06095390     -0.08327438
 H               0.29773715     -0.99297889     -1.63636008     -0.14475415      0.33098636     -0.82162179       1       0       0       0       5     -0.14349273      0.33123999     -0.81666218
 H               0.98328064     -1.67887395     -0.25007425      0.30745974      0.07355618      0.29447515       1       0       0       0       5      0.30366778      0.08277646      0.28972131
 C              -0.10633232      0.06465558      0.11405510      0.87562473     -0.77785698     -1.03366942       6       0       0       0       5      0.88088687     -0.78593292     -1.03900298
 N              -0.79562647      0.76251359      0.71754090     -1.14808044      1.03578441      1.10276731       7       0       0       0       5     -1.14668028      1.03588742      1.10157457
 6
 energy=-3604.9211940443192 cutoff=4.00000000 nneightol=1.20000000 pbc="T T T" Lattice="200.00000000       0.00000000       0.00000000       0.00000000     200.00000000       0.00000000       0.00000000       0.00000000     200.00000000" Properties=species:S:1:pos:R:3:forces:R:3:Z:I:1:map_shift:I:3:n_neighb:I:1:force:R:3
 C               0.43573753     -1.11954638     -0.49187230     -0.63352347      0.79248142      0.55228534       6       0       0       0       5     -0.63776455      0.80127570      0.55524812
 H              -0.36766024     -1.61449319     -1.06700169      0.78588345      0.34716374     -0.07275708       1       0       0       0       5      0.78715212      0.34741053     -0.07190026
 H               0.67503824     -1.71297690      0.36096409      0.19090340     -0.86580466      0.56070519       1       0       0       0       5      0.19012386     -0.86089911      0.55758929
 H               1.37320438     -0.87972190     -0.96901882      0.05933027     -0.38210298     -0.82033161       1       0       0       0       5      0.05843152     -0.38379680     -0.81874555
 C              -0.04220226      0.14360406      0.07204784      0.07611494     -1.27891720     -0.86567147       6       0       0       0       5      0.08059482     -1.29014874     -0.86657100
 N              -0.45835801      1.13953757      0.48050165     -0.47870911      1.38717968      0.64576912       7       0       0       0       5     -0.47853777      1.38615843      0.64437940
 6
 energy=-3604.9252222679188 cutoff=4.00000000 nneightol=1.20000000 pbc="T T T" Lattice="200.00000000       0.00000000       0.00000000       0.00000000     200.00000000       0.00000000       0.00000000       0.00000000     200.00000000" Properties=species:S:1:pos:R:3:forces:R:3:Z:I:1:map_shift:I:3:n_neighb:I:1:force:R:3
 C               1.07381059     -0.65916626      0.20977264     -1.10065335     -1.11413262      0.31279889       6       0       0       0       5     -1.10770976     -1.12158409      0.31228009
 H               1.69198549     -0.59328114     -0.63884978      1.12779443      0.18775945     -0.84377801       1       0       0       0       5      1.13335093      0.18910504     -0.84834257
 H               0.82811788     -1.71097644      0.38677393     -0.03195573      0.14039767     -0.06678235       1       0       0       0       5     -0.03200711      0.14302163     -0.06643455
 H               1.47402881     -0.26850909      1.09714584      1.30104257      0.40384269      1.11828392       1       0       0       0       5      1.30513542      0.40600942      1.12339996
 C              -0.11618784      0.09835768     -0.01085104     -0.96757304      0.03877532     -0.53221634       6       0       0       0       5     -0.97560456      0.04379776     -0.53388686