6
energy=-3604.9572397972 Properties=species:S:1:pos:R:3:forces:R:3 pbc="T T T" Lattice="200.000 0.000 0.000 0.000 200.000 0.000 0.000 0.000 200.000"
C   -1.1559448736    0.0884703541   -0.5494783600   -0.7206807839    0.1070180633    1.8726718684
H   -1.9014270966    0.2756761637    0.2450105609    0.2184738509   -0.0149463380   -0.3864486609
H   -1.4166821955   -0.8305210073   -0.9992282661   -0.1261470722   -1.2494909232   -0.4402058040
H   -1.2779635108    0.8298432917   -1.2913757551    0.3273323100    1.0856010822   -0.6980303918
C    0.1457636919    0.0127673935    0.0841807546   -1.0667806057    0.1521892638   -1.0854113348
N    1.1968772865   -0.1065924214    0.5461540903    1.3678023008   -0.0803711481    0.7374243231
6
energy=-3604.8888122772 Properties=species:S:1:pos:R:3:forces:R:3 pbc="T T T" Lattice="200.000 0.000 0.000 0.000 200.000 0.000 0.000 0.000 200.000"
C   -0.2934961399   -0.2054241117    1.2438736091   -0.1640775315   -1.6496152828   -0.6892845266
H   -0.1670118880    0.5670731178    1.9558130358   -0.1000945962    1.3122021908    0.2243277390
H    0.2613275863   -1.0395708239    1.6999562614    0.1474203814    0.0713033808   -0.6815110527
H   -1.3293260742   -0.5619233168    1.2001718591    0.0554638415    0.3691425643    0.2421094898
C    0.0875391602    0.0762085774   -0.1551173316   -0.4589316640   -0.4964939413    3.2814009924
N    0.2654604921    0.1852261972   -1.2829492687    0.5202200830    0.3934610882   -2.3770421277
6
energy=-3604.9123328469 Properties=species:S:1:pos:R:3:forces:R:3 pbc="T T T" Lattice="200.000 0.000 0.000 0.000 200.000 0.000 0.000 0.000 200.000"
C   -1.0763227446    0.6365589805   -0.3033092942   -0.0987781913   -1.6929522583   -0.6736126232
H   -1.4297119225    0.8882725743    0.6581981744   -0.8231145699    0.5123555921    1.0254089816
H   -1.8500181841    0.0863428430   -0.8748098919    0.5683033153    0.2405097493    0.3710168986
H   -0.7832585301    1.5009067071   -0.8243081279    0.1234942078    1.2895867657   -0.7569641944
C    0.1299937363   -0.1323269155   -0.0412117954   -0.5920073455    0.2382749463   -0.0152193892
N    1.1037698633   -0.6104735915    0.3703042913    0.8221030978   -0.5877753094    0.0493708408
6
energy=-3604.9005151052 Properties=species:S:1:pos:R:3:forces:R:3 pbc="T T T" Lattice="200.000 0.000 0.000 0.000 200.000 0.000 0.000 0.000 200.000"
C    0.5326913952    0.8748515167    0.7737505636   -0.2259279938   -1.0376165803    1.3201659264
H   -0.0605171144    0.9702522523    1.6671273826   -0.5456117855   -0.1105533304    0.3909686606
H    0.4400375509    1.7784406105    0.2833132595    0.2682483550    2.1601731595   -1.0271629883
H    1.5269253629    0.6986576349    1.1499154385    0.5115590643   -0.2543942216   -0.4658823848
C   -0.0342571368   -0.1223089364   -0.0915966116   -0.5382918543   -1.4029364281   -0.8268030747
N   -0.5645541657   -0.8933120786   -0.8079902569    0.5300242143    0.6453274010    0.6087138609
6
energy=-3604.8821674472 Properties=species:S:1:pos:R:3:forces:R:3 pbc="T T T" Lattice="200.000 0.000 0.000 0.000 200.000 0.000 0.000 0.000 200.000"
C   -0.7309242268   -0.2504845732    1.0322844911    1.4664889608   -0.5749331624    0.3038931034
H   -0.6029595908   -1.3064999922    1.4036151370    0.1343432355    1.2082000318   -0.4772980837
H   -1.7046388399   -0.1283768210    0.6820196511   -2.0505073740    0.1601401439   -0.0430366706
H   -0.5002587792    0.4898870970    1.7978485371   -0.1864713275   -0.2388081931    0.2089222020
C    0.0775351024    0.0703800536   -0.1377729591   -0.6440207663   -1.0996871290    1.9313202785
N    0.7622793845    0.2224251058   -1.0464233590    1.2801672715    0.5450877946   -1.9238008297
6
energy=-3604.8909241801 Properties=species:S:1:pos:R:3:forces:R:3 pbc="T T T" Lattice="200.000 0.000 0.000 0.000 200.000 0.000 0.000 0.000 200.000"
C   -1.1371661893   -0.1252804728   -0.5290108302   -1.1925913776    1.8728132791   -1.6793711762
H   -1.8193091222    0.5021511798    0.0604227356   -0.0100098196   -0.5960578617    0.1851965745
H   -1.4457667688   -1.1463655330   -0.6196779610   -0.1296818251   -0.5744621362    0.3123078104
H   -1.2380131683    0.3318758015   -1.5374386144    0.2619393815   -0.4018721957    0.3743907004
C    0.1814957490    0.0533586247   -0.0250941816    0.1229589041   -0.5478337330    0.7101989097
N    1.1434471880    0.0841427768    0.6259776024    0.9473847366    0.2474126476    0.0972776953
6
energy=-3604.8913148812 Properties=species:S:1:pos:R:3:forces:R:3 pbc="T T T" Lattice="200.000 0.000 0.000 0.000 200.000 0.000 0.000 0.000 200.000"
C    0.5457685182   -0.9416091085   -0.7008649836   -0.5165768296   -0.8465398925    0.0498732344
H    0.8827935079   -0.5782989589   -1.6743964156    0.2479736624   -0.0487594324    0.2259434204
H   -0.2959867442   -1.6356439895   -0.9106461956    0.3902873182    0.3840174256    0.0632517136
H    1.3208796922   -1.5894826205   -0.1976885831   -0.6679356270    1.2533918012   -0.3082074148
C   -0.0292463983    0.1697151914    0.0843491172    1.8726405009   -2.9482538751   -1.6411167578
N   -0.5801525991    0.9355261556    0.7288550156   -1.3263885107    2.2061439732    1.6102558043
6
energy=-3604.8503702352 Properties=species:S:1:pos:R:3:forces:R:3 pbc="T T T" Lattice="200.000 0.000 0.000 0.000 200.000 0.000 0.000 0.000 200.000"
C    0.8272709277    0.8603293270    0.4149563075    2.2296227748   -0.0449362017   -1.3362538343
H    0.4228431706    1.8319477942    0.3366998482   -1.1075752741    0.9904856848    0.3029942457
H    1.5957687404    0.9083473262   -0.3869180175    0.0257357161   -0.2165630069    0.5967803418
H    1.3281207392    0.7279094408    1.3529711769    0.0771773235   -0.2372567894    0.5228873456
C   -0.0585578274   -0.1768068468    0.0079223135   -1.0929935186    0.1293167284   -0.0581763556
N   -0.8999372347   -0.8356324105   -0.4563311049   -0.1319670218   -0.6210464152   -0.0282317432
6
energy=-3604.8603035884 Properties=species:S:1:pos:R:3:forces:R:3 pbc="T T T" Lattice="200.000 0.000 0.000 0.000 200.000 0.000 0.000 0.000 200.000"
C   -1.1620664144   -0.3930861938    0.2757956256   -2.7620766818   -1.3441322091    0.2645937886
H   -1.8578881639    0.4077018246    0.5397225641    0.3469997080    0.2738836993   -0.0048701840
H   -1.1756143887   -1.0625927286    1.1469921005    0.1547721943    0.0755986661   -0.1896019029
H   -1.7334665568   -0.9573080163   -0.5442064839    1.4987799620    0.7904404742    0.7556688725
C    0.1573694483    0.0632693072    0.0125971634   -1.0825260426   -0.4343951105   -0.5217200647
N    1.2044718627    0.3988030812   -0.3294877770    1.8440503459    0.6386039658   -0.3040710237
6
energy=-3604.8247157758 Properties=species:S:1:pos:R:3:forces:R:3 pbc="T T T" Lattice="200.000 0.000 0.000 0.000 200.000 0.000 0.000 0.000 200.000"
C    0.9555000580    0.7602952894   -0.5261621714   -1.6752646099   -1.4246535097   -0.5784411758
H    1.6925295795    1.2079354060    0.1592660540   -0.6932239712   -0.2945754248   -0.1963556772
H    0.3919662764    1.4533138697   -1.1486839696    0.3727760475    0.7193926611    0.2657626122
H    1.4116238169    0.1057572102   -1.2772778483    0.4674409876    0.1048830191    0.3513057919
C   -0.1468835585   -0.0942820800    0.0692288899    2.8494222049    1.8851401770   -0.4461136853
N   -0.9449010178   -0.7701642786    0.5548917602   -1.3211506589   -0.9901869226    0.6038416200
6
energy=-3604.8331187334 Properties=species:S:1:pos:R:3:forces:R:3 pbc="T T T" Lattice="200.000 0.000 0.000 0.000 200.000 0.000 0.000 0.000 200.000"
C   -1.1036121327   -0.0584907971   -0.5996512411   -0.9576089862    0.7231582991   -2.0426382550
H   -1.2565884116   -0.8869373435   -1.3298197643    0.8736938292    0.3372362001    0.6958716934
H   -1.1626369146    0.8745490990   -1.2006921168   -0.5110510142   -0.4662551948    0.3729210577
H   -1.9159628890   -0.1353601472    0.0836560208   -0.7877289886    0.2739186663    0.5685974495
C    0.1245022286    0.0477148612    0.1036467941   -1.4023872405   -1.1036024052   -1.1354758593
N    1.1514636060    0.0198709749    0.6013562497    2.7850818861    0.2355444345    1.5407244279
6
energy=-3604.8763845379 Properties=species:S:1:pos:R:3:forces:R:3 pbc="T T T" Lattice="200.000 0.000 0.000 0.000 200.000 0.000 0.000 0.000 200.000"
C   -0.3614539051   -0.9400915043   -0.7895859809   -1.5637939098    2.4885061429   -1.1860967705
H   -0.1581417255   -0.7279893654   -1.8472524646    0.3711768212   -0.3178274551    0.3701658634
H   -1.4461466831   -0.8858197002   -0.7015859361   -0.1864708133   -0.3956167013   -0.0425466183
H   -0.0266138379   -1.8392510197   -0.4315040333    0.9243857029   -2.4223238857    0.4652041277
C    0.0933094059    0.1188992041    0.0732863683   -0.0776288093   -0.5929488835   -0.6321160436
N    0.3472688399    0.9525855714    0.8286322886    0.5323310083    1.2402107827    1.0253894412
6
energy=-3604.8591971734 Properties=species:S:1:pos:R:3:forces:R:3 pbc="T T T" Lattice="200.000 0.000 0.000 0.000 200.000 0.000 0.000 0.000 200.000"
C   -0.7824453668   -0.7537340129    0.6931126785    1.3292912864   -1.3324388311   -0.4290065921
H   -1.7259997675   -0.7315910803    0.2082682042   -1.2239686087    0.2507838783    0.0735592669
H   -0.7945221318   -0.6351432296    1.7896443059    0.0287079116    0.3792742541   -0.7327845100
H   -0.3969103998   -1.7532479658    0.4491877863   -0.2444887889   -0.1898302169    0.5369260842
C    0.1124170217    0.0783271105   -0.0932536043   -0.8386080387    0.1229522192    1.4573024085
N    0.7844309636    0.8036173152   -0.6904224060    0.9490662382    0.7692581822   -0.9059966575
6
energy=-3604.8356253919 Properties=species:S:1:pos:R:3:forces:R:3 pbc="T T T" Lattice="200.000 0.000 0.000 0.000 200.000 0.000 0.000 0.000 200.000"
C    0.7336274727    0.5179560432    0.9138582677    1.1676182507    2.6968961265   -0.3894619941
H    0.7526649496    1.6837033637    0.6482535462   -0.1765931484   -2.4327923901    1.0612007972
H    1.8046777485    0.2136609069    0.8629750484   -0.8687573108   -0.0924208811   -0.0719888370
H    0.3394151126    0.3007094757    1.9089710070    0.0660552447    0.3565415867   -0.0897896139
C   -0.0890685137   -0.0826063640   -0.0981399569   -0.2806606135   -0.5772394421   -0.7017914018
N   -0.7611049829   -0.5314474961   -0.9455274893    0.0923375774    0.0490150001    0.1918310496
6
energy=-3604.8325456344 Properties=species:S:1:pos:R:3:forces:R:3 pbc="T T T" Lattice="200.000 0.000 0.000 0.000 200.000 0.000 0.000 0.000 200.000"
C   -0.9635924274    0.8017457126   -0.1696798108   -0.4482513006    1.3173731939    1.0070111945
H   -1.1775111492    0.9724896800   -1.2234670500    0.0027078861    0.1479207181    0.0834924676
H   -0.5903253170    1.7330980768    0.3391499510   -1.2335099732   -0.3565945515   -0.5884365972
H   -1.8555794153    0.3508246660    0.3414413426    0.8439266231    0.6456955830   -0.4024897747
C    0.1649506696   -0.0443747849    0.0036463463   -0.9976832315   -0.4388369486   -0.4356148419
N    0.9455079928   -0.8693219178    0.1814257735    1.8328099962   -1.3155574807    0.3360370375
6
energy=-3604.8495536759 Properties=species:S:1:pos:R:3:forces:R:3 pbc="T T T" Lattice="200.000 0.000 0.000 0.000 200.000 0.000 0.000 0.000 200.000"
C    0.7986083421    0.8933613465    0.4325574196    0.4960820505   -1.1027781095    1.1903010387
H    0.3625101265    1.8525122033    0.5703995231   -0.2321474928    0.7909063582    0.0736189165
H    1.4954689642    0.8425826345   -0.3499645590    1.5692004260    0.8655264623   -0.9735354288
H    1.3070593836    0.5187844074    1.3424500022   -0.3960717866    0.3940113043   -0.3471375191
C   -0.1229606449   -0.0862293136   -0.0385887994   -0.6317216363   -0.0765011234    0.5356564733
N   -0.8070658234   -0.9233194269   -0.4502605965   -0.8053415608   -0.8711638635   -0.4789034806
6
energy=-3604.8756401432 Properties=species:S:1:pos:R:3:forces:R:3 pbc="T T T" Lattice="200.000 0.000 0.000 0.000 200.000 0.000 0.000 0.000 200.000"
C    1.0698070241    0.3903958010   -0.5615774929    0.8384224050    1.3149707549   -1.9284257304
H    0.8636333134    0.7161400272   -1.6598777240    0.4737988120   -0.1101620085    2.0517502453
H    1.8261002021   -0.3959763415   -0.6370996508   -0.3048973764   -0.1290097387    0.2447875511
H    1.4786173070    1.1909598956    0.0938372540   -0.0791776420   -0.2022460750   -0.9151194464
C   -0.1503638767   -0.0246642147    0.0396015357   -0.5100225729   -0.9014077523    0.4780884408
N   -1.0882983826   -0.4223246643    0.6060884319   -0.4181236258    0.0278548195    0.0689189396
6
energy=-3604.8680641940 Properties=species:S:1:pos:R:3:forces:R:3 pbc="T T T" Lattice="200.000 0.000 0.000 0.000 200.000 0.000 0.000 0.000 200.000"
C   -0.3748694455   -1.2157936070    0.0487365194    1.5936583037   -1.1440083228    1.9079108967
H   -1.2761006558   -1.4327451911    0.6089090856   -0.0524803332    0.3170880058    0.2434027548
H    0.4636800544   -1.8911876436    0.4007216216   -0.9303054113    0.8981856455   -0.0588813521
H   -0.5154325795   -1.4966944778   -0.9279822212   -0.6552446609   -0.8748929918   -2.5454730514
C    0.0477144491    0.1531388028    0.0087557811   -0.4316095771   -0.6596093659    0.5431229575
N    0.3760604376    1.2580279320   -0.0551709567    0.4759811645    1.4632370293   -0.0900822055
6
energy=-3604.8628363153 Properties=species:S:1:pos:R:3:forces:R:3 pbc="T T T" Lattice="200.000 0.000 0.000 0.000 200.000 0.000 0.000 0.000 200.000"
C    1.0933996708    0.0954292066   -0.6104611497    2.1670575458    1.4553493984   -1.6640196323
H    1.9306758198   -0.1991749328   -0.0011328112    0.1270238185   -0.1896358415    0.7555701421
H    1.4185310656    1.1289913077   -1.0073946275   -1.0665348082   -1.5502729915    0.4903783149
H    1.0983069775   -0.6333451749   -1.4095693745   -0.0260159664    0.0618165237   -0.5782519426
C   -0.1484830737    0.0174084096    0.0525229029   -0.1646267192    0.2762851098    0.5390179339
N   -1.1302275266   -0.1180836351    0.6523910705   -1.0369033563   -0.0535421989    0.4573051840
6
energy=-3604.8102064471 Properties=species:S:1:pos:R:3:forces:R:3 pbc="T T T" Lattice="200.000 0.000 0.000 0.000 200.000 0.000 0.000 0.000 200.000"
C   -0.3593396710    1.1134678687   -0.4621409010    0.1812812983   -0.0281525533   -0.9398313492
H    0.5662309294    1.4950004513   -0.8467217456    0.2231182920    0.9461994580   -0.5832321698
H   -0.6549695834    1.6780315468    0.3974554787   -0.4640790129    0.4826948296    0.2820109570
H   -1.1097738396    1.0128220875   -1.2383271235   -0.1600959209    0.4982273792   -0.0314739046
C    0.0299489261   -0.1775961761   -0.0335395301   -0.6710610603    0.7268797141    0.2256667697
N    0.3686706692   -1.1036442449    0.5464452989    0.8908358895   -2.6258488275    1.0468596969
6
energy=-3604.8120131471 Properties=species:S:1:pos:R:3:forces:R:3 pbc="T T T" Lattice="200.000 0.000 0.000 0.000 200.000 0.000 0.000 0.000 200.000"
C    0.5719452441    0.8899235690   -0.6830352106    1.5017927809    1.2599316597   -0.8948606947
H    1.3401146214    1.3110946959    0.0221367546   -0.6983682348    0.1622170811   -1.0341275931
H   -0.0214585443    1.6492268135   -1.2635345361    0.3916659438   -0.7124393692    1.1139377265
H    1.0921539393    0.2862718740   -1.4262708719    0.4280321439    0.3098488072   -0.2641479593
C   -0.1080683264   -0.0841379790    0.0718278144   -0.9674429423    0.0060878585    0.3042972808
N   -0.5712152916   -0.9245189029    0.7160239633   -0.6556796916   -1.0256460374    0.7749012398
6
energy=-3604.7934710093 Properties=species:S:1:pos:R:3:forces:R:3 pbc="T T T" Lattice="200.000 0.000 0.000 0.000 200.000 0.000 0.000 0.000 200.000"
C   -0.3277768088   -0.8322777498   -0.9134673316    0.5235779440    2.9571740610   -2.5913214806
H    0.1106002966   -0.4392306874   -1.9246154742   -0.3165002516   -1.1775843615    1.8702396046
H   -1.3759387673   -0.6783683852   -1.0752343489   -0.8062933833   -0.3112063498    0.1884742170
H   -0.0910508778   -1.8066223330   -0.6613412073    0.4847681673   -2.0829392716    0.0255696228
C    0.0868297418    0.0672707073    0.1310008964   -0.4013137521   -0.4092630894   -0.7256435276
N    0.3041960969    0.8663575143    0.9343568396    0.5157612756    1.0238190113    1.2326810495
6
energy=-3604.7707317601 Properties=species:S:1:pos:R:3:forces:R:3 pbc="T T T" Lattice="200.000 0.000 0.000 0.000 200.000 0.000 0.000 0.000 200.000"
C    0.2476895866    0.9798979045    0.7618069343   -2.8670358055    2.0720470494   -1.7013258277
H   -0.5017188023    1.7887073319    0.5343848030    0.5920484832   -0.6190975189    0.0484329023
H    1.1525183635    1.3715445949    0.4762214736    2.4307617327    0.9028989922   -0.3611397480
H    0.1529741470    0.8611410972    1.7744315203    0.0858645676   -0.9006724167    2.5524798223
C   -0.0571186045   -0.1246178039   -0.0692001146   -0.0696733013   -1.2590189180   -0.3903515958
N   -0.2212381428   -1.0227083305   -0.7942640169   -0.1719656766   -0.1961566738   -0.1480950389
6
energy=-3604.8109116846 Properties=species:S:1:pos:R:3:forces:R:3 pbc="T T T" Lattice="200.000 0.000 0.000 0.000 200.000 0.000 0.000 0.000 200.000"
C   -0.8560908797    0.5907089491    0.7058013793   -1.3560410457   -0.5813413804    0.8612275775
H   -0.5434752299    0.4632201404    1.7598090848   -0.5323793450    0.3778416353   -0.4255484580
H   -1.8111851780    0.0208787687    0.4844365087    0.9183873188    1.0009752722    0.5001531356
H   -0.8870682147    1.6117858777    0.3852542512   -0.6545437781    0.8239563491    0.3798023588
C    0.1402934974    0.0037418112   -0.0918366109    0.2765298788   -0.9226090705   -0.2430551416
N    0.8470098389   -0.6605132339   -0.7156417735    1.3480464569   -0.6988228058   -1.0725794722
6
energy=-3604.8068491607 Properties=species:S:1:pos:R:3:forces:R:3 pbc="T T T" Lattice="200.000 0.000 0.000 0.000 200.000 0.000 0.000 0.000 200.000"
C   -0.9552337283    0.7810439111    0.2447242568   -1.1024541505    0.3586771452   -1.1041433654
H   -1.4877161235    1.0103393281   -0.6668603190   -0.2611156000   -0.1308326510   -0.4188162810
H   -0.8099413787    1.7225885900    0.6803210771    1.2916498191    1.4185805636    0.5858454392
H   -1.6521795636    0.3559824383    0.9142900058   -0.7166698626   -1.1780990964    0.6380624914
C    0.1563711833   -0.0588803514   -0.0522346727   -1.4535367706    1.4169036900    0.9287812612
N    0.9691851106   -0.8414723024   -0.2318040528    2.2421265646   -1.8852291372   -0.6297300597
6
energy=-3604.8014443808 Properties=species:S:1:pos:R:3:forces:R:3 pbc="T T T" Lattice="200.000 0.000 0.000 0.000 200.000 0.000 0.000 0.000 200.000"
C    0.1235371749   -0.9358390900   -0.8886121902   -2.3917766068    1.2552301401   -1.8138090282
H   -0.9042166368   -1.3785195005   -1.0206827499    1.1706079297   -0.0202242990   -0.1157654711
H    0.8503237898   -1.6935867806   -0.7064081250    0.4615603600   -0.3513890956    1.0142581064
H    0.4162298027   -0.5101015414   -1.8918060534   -0.4550354140   -0.1500202811    1.0453340042
C   -0.0980202885    0.1479646174    0.0928878111    1.6219527819   -1.7498636310   -0.9524750070
N   -0.0479512107    0.9333106008    0.9426813673   -0.4073090509    1.0162671665    0.8224573958
6
energy=-3604.7784309769 Properties=species:S:1:pos:R:3:forces:R:3 pbc="T T T" Lattice="200.000 0.000 0.000 0.000 200.000 0.000 0.000 0.000 200.000"
C    1.1476810280   -0.4121958369   -0.2983373775    2.0815349350   -2.2734683145   -1.6720131926
H    1.1133238319   -0.6633739158   -1.4058605142    0.0832091320    0.4239065514    1.1843998423
H    1.5103015960   -1.3973502996    0.1888774407   -0.9346567466    1.8363509198   -0.3143035009
H    1.8665382725    0.3726046485   -0.1649666278    0.8412912421    0.1442316990    0.0589553999
C   -0.1018761785    0.1106986741    0.0702173061   -2.3703773136   -0.4541118736    0.6616945308
N   -1.2198015129    0.3799836754    0.2950369934    0.2989982368    0.3230905037    0.0812669205
6
energy=-3604.8052510632 Properties=species:S:1:pos:R:3:forces:R:3 pbc="T T T" Lattice="200.000 0.000 0.000 0.000 200.000 0.000 0.000 0.000 200.000"
C   -0.1571894794   -1.2709908147    0.1180449115    2.7611459424    1.4193596079    0.0335976359
H    0.8501964132   -1.6451313014    0.0359204835    0.2935305284   -0.8892608316   -0.2009142435
H   -0.7703861872   -1.6826281606   -0.5926919570   -1.4427077975   -0.9217472367   -1.8889536375
H   -0.4859268016   -1.5222412787    1.0722538188   -0.7622925490   -0.1014619089    1.7827902090
C    0.0598185054    0.1547774190   -0.0603683531   -1.2304673295   -1.2607955504    0.5317242279
N    0.1127115889    1.3060645107   -0.0865456882    0.3807912051    1.7539059197   -0.2582441918
6
energy=-3604.7630146111 Properties=species:S:1:pos:R:3:forces:R:3 pbc="T T T" Lattice="200.000 0.000 0.000 0.000 200.000 0.000 0.000 0.000 200.000"
C    0.5367564116    0.8293011987    0.7689854610    0.8918252501   -0.3245148949    0.8509699036
H   -0.0281290857    0.9139287043    1.6753193874    0.2175066019    0.2436146137    0.7160749093
H    0.6460656611    1.7213788534    0.2612067650   -0.1615928173    2.3995495664   -0.7586688359
H    1.5553061221    0.4868423753    0.8363423839    0.4428679244   -0.2732995446    0.9496951301
C   -0.0952122447   -0.0680401611   -0.0870037463   -0.6862382834   -1.1321231405   -0.8495470550
N   -0.5349721341   -0.8773876102   -0.7842780370   -0.7043681615   -0.9132266002   -0.9085235379
6
energy=-3604.7973342642 Properties=species:S:1:pos:R:3:forces:R:3 pbc="T T T" Lattice="200.000 0.000 0.000 0.000 200.000 0.000 0.000 0.000 200.000"
C   -0.8471651511    0.5633099148   -0.8041033576    0.0227691771   -0.6744394901    2.9548873217
H   -0.3795416762    1.1183492428   -1.5546852136    0.4612924511    0.6685650331   -1.3301464354
H   -1.3478231728    1.1816199086   -0.0614716785   -0.1259259573    0.6538686064   -0.3250188312
H   -1.5750377156   -0.1478782843   -1.0576299410   -1.0304966809   -0.8040138431   -1.2922139192
C    0.1055045984   -0.1482781432    0.0461858149    0.3377391079    0.6870255552   -0.2488951458
N    0.8735516456   -0.5107174936    0.8422585800    0.3346219022   -0.5310058616    0.2413875240
6
energy=-3604.8170268449 Properties=species:S:1:pos:R:3:forces:R:3 pbc="T T T" Lattice="200.000 0.000 0.000 0.000 200.000 0.000 0.000 0.000 200.000"
C   -0.7856577197    0.6889624161    0.7644761465    0.8105403318   -1.6408174814    2.0980100511
H   -0.4499353248    0.5106697419    1.8930347747   -0.7157519787    0.6372957884   -2.5132864370
H   -1.7347619550    0.1977401613    0.6193527581   -0.7943007288    0.3512276303    0.3397527961
H   -0.8055650415    1.7216054643    0.4762323080   -0.0628902164    0.5055133718    0.0829936735
C    0.0755408808   -0.0846918028   -0.1147355727    0.7898768884    0.3033896813    0.1960327467
N    0.8240447542   -0.6929756580   -0.7721578600   -0.0274742962   -0.1566084763   -0.2035033446
6
energy=-3604.7819824982 Properties=species:S:1:pos:R:3:forces:R:3 pbc="T T T" Lattice="200.000 0.000 0.000 0.000 200.000 0.000 0.000 0.000 200.000"
C   -0.1693033960   -0.2843993417    1.2154713514    1.1062439568    2.2956039717    1.5743194927
H   -0.2531254836    0.7534259249    1.6635702358   -0.4992311379   -1.2557669865    0.0046367278
H    0.7333776095   -0.6771078892    1.7159175633   -0.3754710781   -0.2455794509   -0.6897195573
H   -1.0208281689   -0.8831688696    1.3750786039   -1.0136677811   -0.6244171317    0.5869520421
C   -0.0268551359    0.0106519915   -0.1670588616    0.2373658041   -1.1515210868    2.3997033184
N    0.2070905766    0.2927778685   -1.2410626292    0.5447602361    0.9816811985   -3.8758915095
6
energy=-3604.8143100601 Properties=species:S:1:pos:R:3:forces:R:3 pbc="T T T" Lattice="200.000 0.000 0.000 0.000 200.000 0.000 0.000 0.000 200.000"
C    0.7653210350    0.2942564051    0.9973442712    0.5225757279   -3.8687690390   -0.7566628611
H    1.2535504341    1.1923341589    0.9048668271    0.6644492109    2.4312127042   -0.2735823660
H    1.6002319129   -0.4883299952    1.0043553692   -1.1841201062    0.8636202463   -0.1161521650
H    0.2463052167    0.1614514314    1.9006949538   -0.5193495074    0.2580508448    1.4729969376
C   -0.1616202730   -0.0315031208   -0.0860717765    1.4289395390    0.6205306519    0.4994928762
N   -0.7407024431   -0.2875681105   -1.0555012986   -0.9124938357   -0.3046454082   -0.8260924218
6
energy=-3604.8192809817 Properties=species:S:1:pos:R:3:forces:R:3 pbc="T T T" Lattice="200.000 0.000 0.000 0.000 200.000 0.000 0.000 0.000 200.000"
C    0.0694614865   -0.8658496388    0.9272076519   -1.0585376483   -1.1641883988   -0.8928876300
H   -0.8667521435   -0.6817749206    1.4394394436   -0.4258852726   -0.7823229867    0.1379150123
H    0.7964434637   -0.7351801693    1.6440210634    1.9685925354    0.8055760455    1.4928710523
H    0.2495671457   -1.8992612031    0.5629305215   -0.7581155345    0.6276078710    0.0423537855
C    0.0645108287    0.1077941370   -0.1236717600    0.2959206261   -0.6138211006    0.4252702647
N   -0.1277711572    0.8886032189   -0.9513575823   -0.0219741919    1.1271485697   -1.2055229990
6
energy=-3604.7967971931 Properties=species:S:1:pos:R:3:forces:R:3 pbc="T T T" Lattice="200.000 0.000 0.000 0.000 200.000 0.000 0.000 0.000 200.000"
C   -0.0537400222   -1.2530124464    0.1464713184   -0.5227109679   -1.9243968114    0.4291480027
H    0.9093938982   -1.5990171117   -0.1879063672    0.4665822391   -0.6167408455   -0.1409782248
H   -0.8160776394   -1.6684296754   -0.5910751312    0.7540351934    0.3179133300    1.4048328740
H   -0.1500024198   -1.5956742568    1.2449070315   -0.3096549460    0.6192471571   -1.9166845298
C    0.0185470366    0.1542065119   -0.0125863540   -0.5421711350   -0.9598648723    0.5645531039
N    0.0342545716    1.2920828265   -0.1483235384    0.1539196164    2.5638425564   -0.3408717402
6
energy=-3604.8050378892 Properties=species:S:1:pos:R:3:forces:R:3 pbc="T T T" Lattice="200.000 0.000 0.000 0.000 200.000 0.000 0.000 0.000 200.000"
C   -0.8643375055    0.8746177079   -0.1034171333   -3.4355185837    1.7326326105   -1.4937318577
H   -0.4654507211    1.8280645626   -0.4803158676   -0.1820963380   -0.3804790732   -0.0324714927
H   -1.3649573830    1.0726931723    0.8300089895    0.2656669672    0.0527636688    0.7379873948
H   -1.7590444238    0.5413656112   -0.7346300090    1.4401084120    0.4822114622    0.3516199807
C    0.1021438485   -0.1143121814   -0.0243827375   -0.5025817998    0.5263099984    0.1598542372
N    0.9118122733   -0.8995921762    0.1372783872    2.4144208282   -2.4134386667    0.2767417378
6
energy=-3604.7622042016 Properties=species:S:1:pos:R:3:forces:R:3 pbc="T T T" Lattice="200.000 0.000 0.000 0.000 200.000 0.000 0.000 0.000 200.000"
C   -1.1181084114   -0.5675584865    0.0397614133   -2.3425451198    1.1840861677    1.9410066533
H   -1.5857508402   -0.5248349081    1.0885430686    0.9070091580    0.1485331549   -1.5381852062
H   -0.9364001002   -1.5440609511   -0.1885587562   -0.0129815008   -3.0807772836   -0.6124234488
H   -1.8158337313   -0.1676860189   -0.6740580674   -0.3994450742    0.1992240001   -0.2632151630
C    0.1314120722    0.0580216791   -0.0658888880    1.1366061163    1.2912374141    0.7524663062
N    1.1581696997    0.5978289916    0.0061459639    0.7113564205    0.2576975752   -0.2796496557
6
energy=-3604.7983653308 Properties=species:S:1:pos:R:3:forces:R:3 pbc="T T T" Lattice="200.000 0.000 0.000 0.000 200.000 0.000 0.000 0.000 200.000"
C   -0.5441367571   -0.5173139016   -1.0072364489    0.0211601806    1.4263823196   -1.7368800733
H   -0.8614438829    0.2503431320   -1.7261835551    0.7067670010    0.2329974996    0.0624325600
H   -1.4659538596   -0.9848553188   -0.8973054937   -1.4195102746   -1.4154962680    1.0675946170
H    0.1668936280   -1.1476908950   -1.4749215779    0.5166678466   -0.8102040315   -0.6453397423
C    0.0566990701    0.0582748088    0.1394612634   -1.3620008632   -0.8070225482   -1.4333263555
N    0.5734062222    0.5290309839    1.0389638925    1.5369161096    1.3733430286    2.6855189941
6
energy=-3604.8141457850 Properties=species:S:1:pos:R:3:forces:R:3 pbc="T T T" Lattice="200.000 0.000 0.000 0.000 200.000 0.000 0.000 0.000 200.000"
C   -0.9767648961    0.0686693143    0.8798527206    1.8770622845   -2.2971718305   -0.1700152376
H   -0.3803324640   -0.1444535021    1.7687412276   -0.4454883930    0.5072858905    0.5475072029
H   -1.6788809171   -0.7683314196    0.8431509307    0.1886356823   -0.0339401069   -0.5214434140
H   -1.5532726550    0.9476514102    0.9492264108   -0.1093690802    1.3497618970   -0.1796234508
C    0.1124888970   -0.0191431066   -0.1484368397   -2.8022805107    0.6140602132    1.3981526332
N    1.0009986103   -0.0449743286   -0.8833835532    1.2914395028   -0.1399960633   -1.0745777337
6
energy=-3604.7947624617 Properties=species:S:1:pos:R:3:forces:R:3 pbc="T T T" Lattice="200.000 0.000 0.000 0.000 200.000 0.000 0.000 0.000 200.000"
C    0.1628282205    0.9445803597    0.8089647426   -0.0494567156   -0.4967705920    0.9746682570
H    0.3528128260    0.5059734646    1.7662700433    0.3638460914   -0.0479135394    0.8737035994
H   -0.8242788545    1.3658316901    0.8827595513   -0.1436424021    0.8118176560   -0.2017616791
H    0.9747502543    1.5703815030    0.5445886841    0.4349844073    1.1551936509   -0.1116172530
C    0.0872688758   -0.1359855339   -0.0995059585   -0.2318656999    0.8642650790    0.4141353303
N   -0.2506560246   -0.9410016557   -0.8381130994   -0.3738656811   -2.2865917402   -1.9491277403
6
energy=-3604.7862089707 Properties=species:S:1:pos:R:3:forces:R:3 pbc="T T T" Lattice="200.000 0.000 0.000 0.000 200.000 0.000 0.000 0.000 200.000"
C   -1.2251380193   -0.3100645412   -0.2120343682    0.9959688198   -0.2053576243    0.9199649478
H   -1.7969300743    0.5338892442   -0.5616290254   -0.1565621964    0.1887112727   -0.0738971099
H   -1.6118153084   -0.7292191494    0.7197080733   -0.4728037950   -0.1661740092   -0.4503765747