9
energy=-0.0132945308 Properties=species:S:1:pos:R:3:forces:R:3 pbc="T T T" Lattice="200.000 0.000 0.000 0.000 200.000 0.000 0.000 0.000 200.000"
O    0.5365102325   -2.8032435510   -0.6714510911    0.0023129646    0.0290642665   -0.0018661068
H   -0.3826955328   -2.4871477880   -0.7055796873   -0.0069790029   -0.0057618426    0.0016228804
H    0.5874621956   -2.9620837805    0.2545405293    0.0001671217   -0.0012608691    0.0038427711
O   -0.9439489607    2.8550839971    1.2973389476   -0.0059690735    0.0110608866    0.0122348524
H   -0.1647606422    3.0819791607    0.6911673603   -0.0024307211   -0.0131712483   -0.0032503889
H   -1.0472209520    1.8773957865    1.2265050192    0.0106968184   -0.0024584890   -0.0144819967
O    0.3816901281    0.0215676798   -0.6095891928   -0.0029691102    0.0283608126    0.0041615879
H    1.0020464287    0.2495662021   -1.2940928974    0.0020537974    0.0003697247   -0.0009626211
H    0.4139165417   -0.9250322598   -0.4312746579    0.0031172057   -0.0462032415   -0.0013004641
9
energy=-0.0104456348 Properties=species:S:1:pos:R:3:forces:R:3 pbc="T T T" Lattice="200.000 0.000 0.000 0.000 200.000 0.000 0.000 0.000 200.000"
O   -0.1295507506   -2.1027125413    2.1644710463   -0.0064853511   -0.0097131142    0.0146804859
H   -0.4715944899   -2.8924368049    1.8015013538    0.0009615927    0.0012870943   -0.0001866621
H    0.0631588305   -1.5882070743    1.3718850318    0.0101332325    0.0143729820   -0.0228437391
O   -0.4316269832    2.6148659745   -1.8905525554    0.0060004410   -0.0157665200    0.0060837448
H   -1.3076905722    2.4958228540   -1.4676136803   -0.0058430895    0.0052815605   -0.0018249692
H   -0.0043926469    3.4574464615   -1.5383305080    0.0005810694    0.0031557723   -0.0010587804
O    0.5603274311   -0.5778631525   -0.2129017098   -0.0019396404   -0.0099707388    0.0148398943
H    0.3156428094   -0.2666888372   -1.1578017833   -0.0028626665    0.0109765544   -0.0095953577
H    1.4183742620   -0.1628228398    0.0217442193   -0.0005445597    0.0003769238   -0.0000935882
9
energy=-0.0098501952 Properties=species:S:1:pos:R:3:forces:R:3 pbc="T T T" Lattice="200.000 0.000 0.000 0.000 200.000 0.000 0.000 0.000 200.000"
O   -1.4917796355    1.6224269022    2.1793528314   -0.0151309432    0.0165676758    0.0041168507
H   -1.6013431414    1.3583287614    3.0866543249    0.0011744800   -0.0016089965    0.0002529966
H   -0.7726640324    1.0066158528    1.9610580054    0.0202407540   -0.0255577958   -0.0108006910
O    0.1229787509   -0.1537736093    1.1907175447   -0.0075744705    0.0100010778    0.0095202815
H    0.1903044782   -1.1466936969    1.2798207492   -0.0000467941   -0.0000406234   -0.0006268350
H    0.4339323478    0.0167486140    0.3327602657    0.0023895835   -0.0008356086   -0.0079241405
O    1.2972050448   -1.3648590472   -3.3005347706   -0.0003671536    0.0010397542    0.0069610052
H    1.9460152350   -0.7381505429   -3.8348218346   -0.0000761047    0.0003944073   -0.0010808918
H    0.9403085226   -2.1445383554   -3.9293195796   -0.0006088373    0.0000401092   -0.0004185756
9
energy=-0.0087764883 Properties=species:S:1:pos:R:3:forces:R:3 pbc="T T T" Lattice="200.000 0.000 0.000 0.000 200.000 0.000 0.000 0.000 200.000"
O   -0.1115820216   -1.0709789155    0.7484800957   -0.0018079999    0.0082321587    0.0135599991
H    0.5416541480   -1.3784183804    0.0109874992    0.0053396674    0.0008978293   -0.0089865204
H   -0.6039191417   -1.8124049853    0.9748197983    0.0011929920    0.0017961728    0.0000899886
O   -0.5699432626    0.8542231748    2.6050121261   -0.0010351262    0.0145179922    0.0106135146
H   -1.0679040617    0.3159924783    3.1740010704   -0.0004139476   -0.0019545528   -0.0015241501
H   -0.3113495442    0.1369329930    1.8942033206    0.0003213879   -0.0215391612   -0.0174315665
O    0.7227719882    0.2996407608   -3.2911110284   -0.0038777381   -0.0095171962    0.0132257556
H    1.0402888950    1.0892053702   -3.8350828210    0.0023494742    0.0014783844    0.0002344846
H   -0.2535441233    0.3329281934   -3.2092036970   -0.0020681955    0.0060878585   -0.0097825340
9
energy=-0.0086844866 Properties=species:S:1:pos:R:3:forces:R:3 pbc="T T T" Lattice="200.000 0.000 0.000 0.000 200.000 0.000 0.000 0.000 200.000"
O    2.4174538205    1.2814950478   -0.4422335609   -0.0081221155   -0.0076829710   -0.0067213784
H    2.7329129966    1.0631172555    0.4934434488   -0.0009770193   -0.0008088691    0.0019725505
H    3.1912131973    1.6735506025   -0.8231058676    0.0008772605    0.0006869988   -0.0011400272
O   -2.7684174473   -0.7627861350    1.7680862176   -0.0020450556    0.0029660248    0.0113735328
H   -2.4717613163   -1.5562156973    1.3426521475    0.0035296107    0.0028066164   -0.0080084727
H   -2.4165041971   -0.0186525633    1.2750357551    0.0015678588   -0.0066195627   -0.0087520358
O    0.2080779397   -0.5539398673   -1.2591441584   -0.0140186839   -0.0085879994    0.0023232490
H    0.2406953973   -0.7219732302   -2.2374399583   -0.0012372149    0.0005106211    0.0014228486
H    0.9916932428    0.1194500051   -1.1095544757    0.0204263877    0.0167286269    0.0075297333
9
energy=-0.0083640726 Properties=species:S:1:pos:R:3:forces:R:3 pbc="T T T" Lattice="200.000 0.000 0.000 0.000 200.000 0.000 0.000 0.000 200.000"
O   -0.4967804784   -1.5075095085    2.3226674840    0.0084008231    0.0129768728   -0.0139842311
H   -0.4804165104   -2.1445763864    3.0661712369    0.0016254515    0.0002427122    0.0021160181
H   -0.3695151814   -2.0054529023    1.4343654669   -0.0089813782   -0.0111056238    0.0000889602
O    0.9166610236    0.6580105043    0.2409195005   -0.0035373240    0.0106654509   -0.0082121041
H    1.8269237713    0.2299109411    0.0399160091   -0.0036951897    0.0011533970   -0.0003357861
H    0.4164123986   -0.0292379084    0.6056174153    0.0009924459   -0.0107621244    0.0157572640
O   -0.5065793201    0.9446956469   -2.5806569541   -0.0093361905    0.0040278905   -0.0116327000
H    0.0440277335    1.5435864893   -3.1459797394    0.0005939249   -0.0011528827    0.0012022479
H   -0.0611261516    0.8945636795   -1.7291119047    0.0139384655   -0.0060446640    0.0150018738
9
energy=-0.0081753888 Properties=species:S:1:pos:R:3:forces:R:3 pbc="T T T" Lattice="200.000 0.000 0.000 0.000 200.000 0.000 0.000 0.000 200.000"
O    1.8840091732    2.6056834990   -0.2923084539   -0.0121258376   -0.0029356858   -0.0027428531
H    1.5631117591    3.3283930315   -0.7972756929    0.0050640452    0.0036735925   -0.0008484641
H    2.5327623936    2.9102298711    0.3439218625    0.0021751534   -0.0023818701    0.0021160181
O   -0.7318579535   -2.6259717091    0.7109181991    0.0083941382   -0.0152543562    0.0099038901
H   -1.4988839962   -3.2410155273    0.4645589113   -0.0011549396    0.0010464391   -0.0011672809
H   -1.0246997943   -1.8065604781    0.2603281014   -0.0125917216    0.0240547287   -0.0125541834
O   -1.1557465074   -0.0493603007   -0.3381178696   -0.0011935062   -0.0145596441    0.0051062113
H   -0.2029992299   -0.0886702094   -0.2895499587    0.0102062519    0.0068273078   -0.0016249373
H   -1.3122174738    0.0032637046   -1.2597574070    0.0012259021   -0.0004699977    0.0018126279
9
energy=-0.0080032224 Properties=species:S:1:pos:R:3:forces:R:3 pbc="T T T" Lattice="200.000 0.000 0.000 0.000 200.000 0.000 0.000 0.000 200.000"
O    1.0024987062    0.4914575427   -0.2297720647    0.0079195125    0.0045199997    0.0182337508
H    1.3806903872   -0.3973327659    0.0450868185    0.0033223798    0.0012834948   -0.0012696108
H    0.4875921342    0.2477536668   -1.0300583203   -0.0184250408    0.0012557269   -0.0178773958
O   -0.1240202084   -1.0733090619    2.7810585546   -0.0121109252   -0.0036730782    0.0180368042
H    0.7869457812   -1.3242769817    3.0719155129    0.0002787076    0.0038191169   -0.0085761723
H   -0.0018217583   -0.1428908417    2.5551382164    0.0109708980   -0.0025901295   -0.0158158852
O   -0.8651588057    0.6006285392   -2.5042691917    0.0073842088   -0.0038345435    0.0069589483
H   -1.4845232223   -0.0071563219   -2.8817939058   -0.0003825802   -0.0014963822   -0.0006654015
H   -1.3803277515    1.3258260611   -2.5066678690    0.0010443822    0.0007168236    0.0009729055
9
energy=-0.0071598871 Properties=species:S:1:pos:R:3:forces:R:3 pbc="T T T" Lattice="200.000 0.000 0.000 0.000 200.000 0.000 0.000 0.000 200.000"
O    1.1078297453   -0.8761688361   -0.9561896587    0.0116075032    0.0082738106   -0.0006108942
H    0.8092225248   -0.5230540473   -1.8133864585   -0.0006736291    0.0001455244   -0.0009564504
H    0.4586599367   -1.4348890149   -0.5118975944   -0.0050954126   -0.0008803458    0.0022975380
O   -2.8805075075   -0.3732697975    0.4277337581    0.0095413645   -0.0072746798   -0.0044156129
H   -2.3429203549   -0.1529408934    1.2119488634   -0.0061223113    0.0065280314    0.0069502066
H   -3.5511088609    0.3303055030    0.2104989400    0.0002627668    0.0012397860   -0.0003810375
O    1.8497927499    1.2110118285    0.5807997789   -0.0014799271    0.0171852548    0.0137003813
H    2.0061009275    0.4468709936   -0.0391515990   -0.0091006774   -0.0255089448   -0.0172284493
H    1.3958782990    1.9437165952    0.1110511141    0.0010603230    0.0002910489    0.0006438043
9
energy=-0.0070625248 Properties=species:S:1:pos:R:3:forces:R:3 pbc="T T T" Lattice="200.000 0.000 0.000 0.000 200.000 0.000 0.000 0.000 200.000"
O    0.1361842879    1.2473808213    0.4542253143   -0.0069388937    0.0010958042   -0.0104145112
H    1.0387748563    0.9031388428    0.7666157310    0.0048830395   -0.0054358267    0.0009297110
H   -0.5281218385    0.7051276028    0.8551183306    0.0006540887   -0.0010680363   -0.0010916905
O   -1.0767288329    1.6443941532   -2.0516807862   -0.0028888917    0.0007965278   -0.0127501015
H   -0.6863773770    1.4607190771   -1.1433308902    0.0069707754    0.0002509397    0.0212414275
H   -2.0902567356    1.3529214019   -2.0787051058   -0.0012768099   -0.0004324596    0.0010346120
O    1.0118152240   -2.8003029556    1.4720712524   -0.0002555677    0.0168880353    0.0019751216
H    1.0175120170   -2.7819749378    2.4526774629    0.0005563868   -0.0068427345    0.0020609964
H    0.1170774575   -3.0920112595    1.1380454594   -0.0017036131   -0.0052532784   -0.0029845368
9
energy=-0.0062490404 Properties=species:S:1:pos:R:3:forces:R:3 pbc="T T T" Lattice="200.000 0.000 0.000 0.000 200.000 0.000 0.000 0.000 200.000"
O   -3.0952230115   -0.7087727007   -0.7812991813    0.0079693920    0.0052445366    0.0037507256
H   -3.8078558616   -1.0419959920   -0.2669290795   -0.0016856154   -0.0002308851    0.0012670397
H   -2.5665240912   -1.4950513643   -1.0301260298    0.0006468896   -0.0006623162   -0.0011559681
O   -0.7818658615    0.4765004473    0.7074375334    0.0118610140    0.0023237632    0.0052928734
H   -1.4969398515    0.1517556281    0.0563449493   -0.0146182652   -0.0083488868   -0.0096786615
H   -0.7047865591    1.3453095437    0.7307749311    0.0003028760    0.0007075676   -0.0001568373
O    3.9801325990    0.2722296840    0.1135966725    0.0066293329   -0.0027572512   -0.0021694970
H    3.2167081228    0.2571865062    0.6519951040   -0.0081164591    0.0022970237   -0.0003069897
H    3.7236230548    0.1484885156   -0.7728364379   -0.0029901932    0.0014269624    0.0031568007
9
energy=-0.0060612274 Properties=species:S:1:pos:R:3:forces:R:3 pbc="T T T" Lattice="200.000 0.000 0.000 0.000 200.000 0.000 0.000 0.000 200.000"
O    0.5724836087    0.1571631950   -1.0273864135    0.0117201175    0.0006530603    0.0055052465
H   -0.3514407124    0.1304017850   -1.3160166407   -0.0164653459    0.0013302889   -0.0064946071
H    0.7944820331   -0.8071640832   -1.1206624074    0.0006638589   -0.0027217700   -0.0007271080
O    1.6446270006   -0.4756816182    3.1165997827    0.0022281182   -0.0024399771    0.0122590208
H    1.5609670221   -1.3128128209    2.7954702284   -0.0003486416    0.0043055697   -0.0068813010
H    2.3911009941   -0.0889216361    2.5207385713   -0.0054522818   -0.0002457975   -0.0082655831
O   -2.1569160090    0.3913291782   -2.0028674477    0.0071003590   -0.0002134016    0.0040793126
H   -2.8242837981    0.4517175594   -1.3583947916   -0.0007883003   -0.0002792218    0.0010006734
H   -2.5263891362    0.4709395257   -2.8918396239    0.0013426302   -0.0003887508   -0.0004756541
9
energy=-0.0057133842 Properties=species:S:1:pos:R:3:forces:R:3 pbc="T T T" Lattice="200.000 0.000 0.000 0.000 200.000 0.000 0.000 0.000 200.000"
O   -0.0469397796    0.8318953636    1.3888381526   -0.0094904567   -0.0031444594    0.0031855971
H    0.2466648536    1.7699822678    1.5111171964   -0.0000529647   -0.0005599863    0.0000956450
H    0.7408601638    0.3454606213    1.2165183380    0.0059747300   -0.0021371011   -0.0030560134
O   -1.9951317012   -0.7904266690    1.4320809846   -0.0075976104   -0.0100581563   -0.0010114721
H   -1.4219196766    0.0336004429    1.4787991058    0.0145473028    0.0149694779   -0.0002756223
H   -2.2347794135   -0.8910098599    2.3055861932   -0.0004098339    0.0006011240   -0.0005080500
O    2.0062005797   -0.1326462060   -2.8183924607   -0.0017951444    0.0078125546    0.0110202632
H    2.1634690203    0.3265987028   -3.6359076420    0.0009651922   -0.0015472900   -0.0014716996
H    1.0751403026   -0.1372280835   -2.9162231042   -0.0021432718   -0.0059382203   -0.0079801906
9
energy=-0.0056780094 Properties=species:S:1:pos:R:3:forces:R:3 pbc="T T T" Lattice="200.000 0.000 0.000 0.000 200.000 0.000 0.000 0.000 200.000"
O    0.8900288626    1.0817236976    0.7573574683   -0.0045164001    0.0072124591   -0.0062369825
H    0.6934127101    0.8883708122    1.6554328117   -0.0018475949   -0.0009549078   -0.0011739658
H    1.2049439708    0.2447969414    0.3452372562    0.0010978611   -0.0101887684   -0.0010191854
O   -0.1130993826   -2.7613429282    0.7628753332    0.0039780111    0.0037250145    0.0057083637
H   -0.0866555538   -3.7408740527    0.4960246435    0.0004818248   -0.0003234448   -0.0017591489
H   -0.9806270558   -2.6747911177    1.1286887124   -0.0022420021   -0.0007065392   -0.0026616062
O   -0.7166666604    1.8169709461   -1.6107237647   -0.0049298336   -0.0001928328   -0.0116337284
H   -1.5315395755    1.3778182366   -1.3910368734   -0.0008016700    0.0011616245    0.0010659794
H   -0.2561810445    1.7242792976   -0.7978411194    0.0087798037    0.0002673947    0.0177113026
9
energy=-0.0054812711 Properties=species:S:1:pos:R:3:forces:R:3 pbc="T T T" Lattice="200.000 0.000 0.000 0.000 200.000 0.000 0.000 0.000 200.000"
O    2.2504493946   -0.0292782027   -1.7087349241    0.0093814419    0.0080197856   -0.0048038495
H    1.5303808649   -0.5151512334   -1.3588388089   -0.0157104699   -0.0134828660    0.0069666616
H    2.0912051186    0.8828600773   -1.3405681514    0.0009698202    0.0001789488    0.0000560501
O   -2.2808701542    1.2077558542    2.4771854429    0.0006690011   -0.0072926775   -0.0035203547
H   -1.6907868381    0.7769659904    3.0950390175    0.0005970102    0.0028600954    0.0030698974
H   -2.4454780511    2.0656967684    2.8626409724    0.0007507622    0.0018877041   -0.0011600818
O    0.0333423946   -1.2107833971   -0.9179577341    0.0052774467    0.0035532648   -0.0023155357
H    0.5112150516   -1.9948275371   -0.7526899676    0.0001954039    0.0023715857   -0.0010181569
H   -0.0429158552   -0.7027041374   -0.1322198078   -0.0021304162    0.0019031307    0.0027263980
9
energy=-0.0056583900 Properties=species:S:1:pos:R:3:forces:R:3 pbc="T T T" Lattice="200.000 0.000 0.000 0.000 200.000 0.000 0.000 0.000 200.000"
O    0.1090293001    0.1737997444   -0.5379170788    0.0074973374    0.0068710166   -0.0052579064
H   -0.7603371703    0.5605211063   -0.6476886800   -0.0020388850    0.0004057201    0.0007240227
H    0.1781253205   -0.0666974881    0.4185546428   -0.0027814196   -0.0028883775    0.0059855286
O    2.2445971776    1.9999097268   -1.5580910971    0.0082897514    0.0076269210   -0.0023330192
H    2.1614932664    2.4955642007   -0.7625941874   -0.0001218703   -0.0006150079   -0.0010196996
H    1.5516586720    1.2810581268   -1.3706661480   -0.0132021015   -0.0108207456    0.0052121407
O   -2.2409968696   -2.1089290266    2.0007955472    0.0065897379    0.0047807096   -0.0090307434
H   -2.9365758324   -2.4641008855    2.5042823963   -0.0008952582    0.0014192491    0.0018013150
H   -1.9823112300   -2.8347069802    1.3695718348   -0.0033388348   -0.0067794853    0.0039183615
9
energy=-0.0054403180 Properties=species:S:1:pos:R:3:forces:R:3 pbc="T T T" Lattice="200.000 0.000 0.000 0.000 200.000 0.000 0.000 0.000 200.000"
O   -1.4052933693   -0.6080097070    0.6362430988   -0.0019113582    0.0036972466   -0.0058564592
H   -0.4678630980   -0.8738312432    0.7124960118    0.0110475169   -0.0019879771    0.0014886688
H   -1.2258902296    0.3228025480    0.8268521322    0.0010181569    0.0015035812    0.0007060250
O   -0.6367615503    2.3221731954   -1.8511175170    0.0041626163    0.0019422115   -0.0041991260
H   -0.9256658017    1.5727941079   -1.2849312103   -0.0061927595   -0.0044737198    0.0064956355
H    0.2941461543    2.0922836667   -1.9344051782   -0.0019915767    0.0000257110    0.0006972832
O    1.8727745287   -1.6902145566    1.1887241406   -0.0058127505   -0.0029423707    0.0023844412
H    2.3025441139   -2.3162463978    0.6416121340    0.0003419567   -0.0000529647   -0.0014686142
H    2.7099828431   -1.1779817564    1.4535006103   -0.0006623162    0.0022887962   -0.0002483686
9
energy=-0.0050754949 Properties=species:S:1:pos:R:3:forces:R:3 pbc="T T T" Lattice="200.000 0.000 0.000 0.000 200.000 0.000 0.000 0.000 200.000"
O    2.3778280836   -0.2204399491   -1.4605050273    0.0010335835    0.0011683094    0.0066144205
H    2.5868703207   -0.8945253194   -0.7310109315    0.0017432081   -0.0016593901   -0.0032611875
H    1.4623013986   -0.4903894045   -1.8436970128   -0.0075328186    0.0015236358   -0.0025819020
O   -1.1593409098    0.3060551232    2.1659436146   -0.0034303661    0.0042088962   -0.0049236629
H   -0.9049820591   -0.3774728942    2.8525554939    0.0001563231   -0.0018198270   -0.0022517723
H   -1.0864128974    1.2476237221    2.4999102189    0.0000997588    0.0001866621    0.0020635676
O   -1.1643664552    0.0031621056   -0.8127071809    0.0083283180   -0.0011194584   -0.0047997357
H   -1.9397747767    0.0437746554   -0.1837805189   -0.0010361547    0.0007214516    0.0088538515
H   -0.9771453029   -0.9383121978   -0.8911340941    0.0006402047   -0.0032113081    0.0002889920
9
energy=-0.0049336420 Properties=species:S:1:pos:R:3:forces:R:3 pbc="T T T" Lattice="200.000 0.000 0.000 0.000 200.000 0.000 0.000 0.000 200.000"
O    2.5763139428   -0.2488388453    0.1659164376    0.0026178974   -0.0006833993   -0.0064318721
H    2.3010412096   -1.0274314298   -0.2927200199    0.0022476586   -0.0010531239    0.0018049146
H    1.9878643474   -0.3018310927    1.0116528561   -0.0083308891    0.0032627302    0.0060559768
O   -1.7622531048   -0.0117042803   -1.6242227592   -0.0044917176    0.0040160634    0.0030678405
H   -2.4264476691   -0.5010848840   -1.9926332225    0.0003470990   -0.0000869033    0.0006093515
H   -0.9847393003   -0.0964172704   -2.2085767192    0.0026004139   -0.0011081455   -0.0009909032
O   -0.7262764460    0.3516276795    1.5251669126    0.0074412873   -0.0045164001    0.0054106299
H   -1.2577437691    1.0026525400    0.9114605220   -0.0025351079    0.0018234265   -0.0083344886
H   -1.0135145869   -0.5218162946    1.5094332293    0.0001038726   -0.0016542479   -0.0011919635
9
energy=-0.0049650439 Properties=species:S:1:pos:R:3:forces:R:3 pbc="T T T" Lattice="200.000 0.000 0.000 0.000 200.000 0.000 0.000 0.000 200.000"
O   -1.5774099150    3.4541687616   -0.8900944265   -0.0011174015   -0.0076896559    0.0034632762
H   -0.6303132029    3.3762324932   -1.0444453910    0.0021957223    0.0037692375   -0.0017617200
H   -1.7338389413    4.1654478775   -0.3253923178    0.0002144300    0.0018702206   -0.0009415380
O   -0.5808784987   -1.5222133293    0.2926276030    0.0079308254   -0.0014161637    0.0014187348
H   -1.3069902720   -1.3722585210   -0.3004510666   -0.0016444777    0.0013426302   -0.0021525277
H   -0.8911734191   -1.2758025459    1.2247908462    0.0000503936    0.0005743845    0.0001126143
O    2.2108062700   -1.9760775658    0.6119932242    0.0093135648   -0.0005183344    0.0008793173
H    2.5352982744   -2.4047308134   -0.2042972610    0.0000694198    0.0000092560    0.0001455244
H    1.1933189994   -1.7884684450    0.4191947774   -0.0170119624    0.0020589396   -0.0011636814
9
energy=-0.0045729823 Properties=species:S:1:pos:R:3:forces:R:3 pbc="T T T" Lattice="200.000 0.000 0.000 0.000 200.000 0.000 0.000 0.000 200.000"
O   -0.0933568675    2.4593984312   -0.5418536045   -0.0085566320    0.0085478902   -0.0033624890
H    0.3967978719    1.6788340847   -0.1027284048    0.0141894052   -0.0144161765    0.0011071171
H   -0.5128447059    2.9637972826    0.1838303293   -0.0003481274    0.0003280728   -0.0005116496
O   -1.5556694132   -3.0218647139    0.3746706513    0.0100087911    0.0002797360   -0.0003244732
H   -2.4757466019   -3.0832431744    0.5121355068   -0.0010649510    0.0018090283    0.0005903253
H   -1.4566372932   -2.4764399757   -0.4185083897   -0.0089453828   -0.0000977019   -0.0016357360
O    1.7022527800    0.6151624105    0.1641433256   -0.0021957223    0.0047477995    0.0004334880
H    1.3724318108   -0.1991295064    0.6287335818   -0.0019643230   -0.0027114856    0.0014063935
H    1.8310509517    0.2796527427   -0.7552098319   -0.0011220295    0.0015148941    0.0022975380
9
energy=-0.0047171210 Properties=species:S:1:pos:R:3:forces:R:3 pbc="T T T" Lattice="200.000 0.000 0.000 0.000 200.000 0.000 0.000 0.000 200.000"
O    2.2876086570   -1.6391246552    0.0419532910   -0.0029469987    0.0046855787    0.0011282002
H    3.2054162487   -1.5459619810    0.4877187248    0.0007497337   -0.0003733242    0.0003167599
H    2.4343514586   -2.1567525608   -0.7554977336   -0.0017529783   -0.0005620432   -0.0016002547
O   -2.0851370377    1.7544823240    1.1528095608    0.0036741067   -0.0027243411    0.0006643731
H   -2.3437266895    2.6152875517    0.8792846798   -0.0000735336    0.0001547804   -0.0007512764
H   -2.8348178448    1.1570337276    0.8445772653   -0.0004751399    0.0002267713   -0.0014999817
O   -0.1885520678   -0.0705160584   -1.0830650312    0.0011719089   -0.0004154903    0.0054157721
H   -0.1517597998    0.2266048827   -2.0450500343    0.0002427122    0.0007553902   -0.0026626346
H   -0.5304303129   -1.0080530536   -1.1841881485   -0.0005898111   -0.0017473218   -0.0010109578
9
energy=-0.0045559207 Properties=species:S:1:pos:R:3:forces:R:3 pbc="T T T" Lattice="200.000 0.000 0.000 0.000 200.000 0.000 0.000 0.000 200.000"
O    0.1787593134   -0.4665360945    1.8093164212   -0.0046033034    0.0085736012    0.0024410055
H    0.7515832681    0.2867562587    1.6854106051    0.0005867258    0.0010814061   -0.0004463435
H    0.5597987580   -1.2784431173    1.3494180474    0.0019797496   -0.0119340333   -0.0103270937
O    0.7116264353   -2.7431779861    0.0610494885    0.0008453788    0.0038273445    0.0051092966
H    0.9003262059   -2.3896087597   -0.7866175395   -0.0004453151    0.0011595676   -0.0001964323
H    1.0334913721   -3.6344320310    0.0300849696    0.0004417156   -0.0012485278    0.0004540569
O   -0.9643395184    3.2676012946   -1.8543610026   -0.0021864663   -0.0002149442   -0.0050979837
H   -0.8662854239    2.3791908308   -1.4709181253    0.0016732741    0.0008047553    0.0060924865
H   -1.2049296406    3.7176019933   -1.0614490293    0.0017087553   -0.0020491694    0.0019710078
9
energy=-0.0044987496 Properties=species:S:1:pos:R:3:forces:R:3 pbc="T T T" Lattice="200.000 0.000 0.000 0.000 200.000 0.000 0.000 0.000 200.000"
O    0.6172791227   -0.6081960962    3.3800465845   -0.0020635676   -0.0033187802    0.0056877948
H    0.1746827009   -0.3193002707    2.6159639495    0.0034087688    0.0039821249   -0.0084321906
H   -0.0737469627   -1.0922020245    3.8020835909    0.0005527872    0.0010901478   -0.0010006734
O    0.5409899522    0.0091660841   -0.4275141341    0.0047714536   -0.0031490874    0.0062868619
H    0.2042053726    0.1065531328   -1.3099146770   -0.0090651962    0.0011230579   -0.0095475352
H    0.4002716305    0.7073214986    0.1710584010   -0.0009446234   -0.0008242957    0.0022312035
O   -1.0268087928    0.5587196113   -2.9662934249    0.0097408822   -0.0020327143    0.0050326777
H   -0.9489053114    1.1926161680   -2.1573227781   -0.0058204638    0.0037224434   -0.0008176109
H   -1.8433833208    0.0449219089   -2.9034188879   -0.0005795267   -0.0005928964    0.0005605005
9
energy=-0.0043546925 Properties=species:S:1:pos:R:3:forces:R:3 pbc="T T T" Lattice="200.000 0.000 0.000 0.000 200.000 0.000 0.000 0.000 200.000"
O    2.4180645613    0.7822601376   -3.4685514222    0.0027454242    0.0029140885   -0.0026209828
H    1.5371300915    0.5132873791   -3.0373894453   -0.0014845551   -0.0025227666    0.0041075947
H    3.0657683444    0.9485874538   -2.7891792087   -0.0026333241   -0.0016866438    0.0004900523
O   -0.5071990405   -0.8813253127    0.5516448939    0.0057412738   -0.0021993218   -0.0106932188
H   -0.9526456204   -0.8160473991    1.3278113519   -0.0065655695    0.0059464478    0.0131187977
H   -1.1205303789   -0.5256025144   -0.0248778386   -0.0000395950    0.0008412650    0.0002951627
O   -1.8817640032    0.0305417446    2.8420065117    0.0023736426   -0.0046135879   -0.0056281452
H   -1.8532830518    0.8890384271    2.2594116581   -0.0005877542    0.0012711535   -0.0002015745
H   -1.1384135606    0.0785168764    3.4532292902    0.0004509715    0.0000488510    0.0011338566
9
energy=-0.0043783120 Properties=species:S:1:pos:R:3:forces:R:3 pbc="T T T" Lattice="200.000 0.000 0.000 0.000 200.000 0.000 0.000 0.000 200.000"
O   -2.8042342805   -2.6124530957   -0.4931371623    0.0040947392    0.0073862657    0.0034483638
H   -2.8919675382   -2.4568795489   -1.4945147105   -0.0010952900   -0.0019339839   -0.0016074538
H   -2.0150763554   -3.1765835998   -0.3537415538   -0.0009075995   -0.0036514810   -0.0014768418
O    2.5164247446    1.5178094689   -0.5507613427    0.0091032485    0.0006191217   -0.0067707436
H    3.1083507128    1.5328047894    0.2786627478   -0.0013441728   -0.0001357543    0.0000884460
H    1.6732213311    1.2495207793   -0.1252383831   -0.0117005771   -0.0009405096    0.0098817786
O    0.3083122007    1.0833005451    1.0251132502    0.0075379608    0.0017956586   -0.0027762774
H   -0.6673695596    0.8633884458    1.0062528947   -0.0045570236   -0.0025875584   -0.0013940522
H    0.4673703531    2.1678157158    0.9867869103   -0.0011312855   -0.0005502161    0.0006057519
9
energy=-0.0045047089 Properties=species:S:1:pos:R:3:forces:R:3 pbc="T T T" Lattice="200.000 0.000 0.000 0.000 200.000 0.000 0.000 0.000 200.000"
O   -3.9057472564   -0.8460757188    0.3652717535    0.0053586936    0.0010649510   -0.0002982480
H   -4.7889546501   -1.0041080934    0.8092820406   -0.0003784664   -0.0004555995    0.0006659158
H   -4.0032226327   -0.1966980118   -0.3695309410   -0.0025001409    0.0002046598   -0.0007646461
O    0.7204096494   -0.2909045960    0.0686917400    0.0059685593    0.0011965915   -0.0027181705
H    0.7995335823   -1.2785626998    0.2685762668   -0.0004771968   -0.0010927189    0.0000719909
H    0.0062334179    0.0076035854    0.5684916145   -0.0036756494    0.0003671536    0.0012500704
O    3.3419654960    1.1360292783   -0.4540554056    0.0070093420    0.0043086550   -0.0013364595
H    2.6095489502    0.4879612956   -0.4646899522   -0.0107369276   -0.0047570554    0.0030184753
H    2.8904604203    1.9989012229   -0.4931784978   -0.0005687281   -0.0008371513    0.0001110717
9
energy=-0.0041273958 Properties=species:S:1:pos:R:3:forces:R:3 pbc="T T T" Lattice="200.000 0.000 0.000 0.000 200.000 0.000 0.000 0.000 200.000"
O   -2.3754047266   -0.8084123436    0.7883923472   -0.0057140201    0.0040196630    0.0055474126
H   -2.4909155419   -1.7535172162    0.9159725433    0.0011066029    0.0002776792   -0.0014182206
H   -1.5599407193   -0.9553767590    0.3032969269    0.0068730735   -0.0060868301   -0.0080346980
O   -0.1679168962   -1.6998523075   -0.9896518976   -0.0040109212    0.0005522730    0.0038170600
H    0.1626480617   -2.6039183455   -1.0249689466    0.0000622207   -0.0002812787    0.0003609829
H    0.5544339103   -0.9660433237   -0.9457586844    0.0034349941    0.0033995129    0.0003584118
O    2.4823525600    2.5167509531    0.2333629764   -0.0011971057   -0.0043677904   -0.0043456789
H    1.6081201255    2.7614905963    0.5119201090   -0.0008618338    0.0016264800    0.0030004776
H    2.6935120223    3.3826486245   -0.2700901380    0.0003059613    0.0008613196    0.0007137383
9
energy=-0.0041517772 Properties=species:S:1:pos:R:3:forces:R:3 pbc="T T T" Lattice="200.000 0.000 0.000 0.000 200.000 0.000 0.000 0.000 200.000"
O   -2.7697848087    0.0448845560   -2.3587666497   -0.0037023888    0.0007111672   -0.0028384981
H   -1.9622434250    0.1378416110   -2.9322137100    0.0022291466   -0.0001712355    0.0035177836
H   -2.3535475871    0.4778784669   -1.5050810409    0.0027608508   -0.0012202457    0.0003933788
O    1.4191771192   -0.8408873149    2.3493309609    0.0015318634    0.0015997405   -0.0035306391
H    0.8815360733   -1.0018939929    3.0943107795   -0.0006258066    0.0012711535   -0.0005620432
H    0.9467618941   -1.4025560263    1.7524868659   -0.0015112946   -0.0011549396   -0.0008402366
O    1.3882288639    0.8123603923   -0.0619449740   -0.0000092560    0.0003306439   -0.0006720864
H    0.9875100596    1.4781448665    0.5072733403   -0.0000884460   -0.0009883321    0.0005964960
H    0.9027628923    0.0509146232    0.2163613319   -0.0005841547   -0.0003784664    0.0039363592
9
energy=-0.0041208923 Properties=species:S:1:pos:R:3:forces:R:3 pbc="T T T" Lattice="200.000 0.000 0.000 0.000 200.000 0.000 0.000 0.000 200.000"