9
energy=-0.0063468381 Properties=species:S:1:pos:R:3:forces:R:3 pbc="T T T" Lattice="200.000 0.000 0.000 0.000 200.000 0.000 0.000 0.000 200.000"
O   -2.4496897461   -0.0526666307    1.5562327506    0.0073965501   -0.0020990488    0.0036571374
H   -3.2808799154   -0.4779266067    1.7531220000   -0.0008973151   -0.0011168873   -0.0009641638
H   -2.5341926731    0.7631421518    1.9884907580   -0.0013421159    0.0019684367   -0.0011508259
O    1.3802398880    0.6896343084   -2.3570104608   -0.0035512080    0.0050301066   -0.0083571143
H    2.0407150938    1.4352274851   -2.1809910988    0.0010880909   -0.0008680045    0.0013266893
H    1.2972284507    0.2583411855   -1.4945889567    0.0041163365   -0.0071543522    0.0130087545
O    1.1068531007   -0.6241896267    0.6836951527    0.0049534877    0.0012428714   -0.0111380197
H    0.3907729479   -0.6658682276    1.3302669194   -0.0119720856    0.0016239089    0.0032318769
H    1.4925955770   -1.5157620954    0.4623360236    0.0002077452    0.0013739976    0.0003856655
9
energy=-0.0059684366 Properties=species:S:1:pos:R:3:forces:R:3 pbc="T T T" Lattice="200.000 0.000 0.000 0.000 200.000 0.000 0.000 0.000 200.000"
O   -1.3343372485   -0.9930376196   -2.6204332530   -0.0002735654    0.0044762909    0.0071466389
H   -0.5489489460   -1.5646985612   -2.4929523061    0.0010880909    0.0002062025    0.0001439818
H   -1.9294550880   -1.6548272773   -3.0838755759   -0.0013488008   -0.0004705119   -0.0004895381
O    2.7739261213    0.6566156893    2.7524045191    0.0059001680   -0.0012644686    0.0011816791
H    2.7685727312    0.9907233748    1.8107765365   -0.0049997676    0.0001121001    0.0009878179
H    1.7904572117    0.4798773224    2.9078508473   -0.0045071442    0.0011251148   -0.0039281317
O   -1.3625279387    0.4585674914   -0.0283530172    0.0030534423    0.0052229393    0.0100915807
H   -2.0292388038   -0.2366992972    0.1358553207    0.0012680682   -0.0001923185   -0.0008345801
H   -1.2746965550    0.0466157711   -0.9225503144   -0.0001794630   -0.0092158629   -0.0142989342
9
energy=-0.0057765147 Properties=species:S:1:pos:R:3:forces:R:3 pbc="T T T" Lattice="200.000 0.000 0.000 0.000 200.000 0.000 0.000 0.000 200.000"
O   -1.6985945909   -1.6088416079    0.3885146038    0.0051031259   -0.0106875624   -0.0007193947
H   -1.7994604544   -1.7669156806   -0.5624367702   -0.0024867712   -0.0001691786   -0.0008289237
H   -1.6146325047   -0.6544818424    0.6175148688   -0.0026549213    0.0192339100   -0.0035311533
O    2.7765524621    0.4484326734   -0.1395356754   -0.0011282002    0.0049797130   -0.0007106530
H    3.4462334473    0.9237950263    0.3397382030    0.0006350625   -0.0008026985    0.0003255017
H    3.2910422904   -0.3405935428   -0.4269265648   -0.0018095425   -0.0022049782    0.0000478225
O   -1.1734564953    1.0748506625   -0.1995567165   -0.0007512764   -0.0078480359    0.0054090872
H   -0.9359966910    1.4005111952   -1.1210012697    0.0018851330   -0.0014860977    0.0001367827
H   -0.8711861738    1.7958859090    0.3685550054    0.0012079044   -0.0010155858   -0.0001285552
9
energy=-0.0054617606 Properties=species:S:1:pos:R:3:forces:R:3 pbc="T T T" Lattice="200.000 0.000 0.000 0.000 200.000 0.000 0.000 0.000 200.000"
O    2.2771708076    0.2035030805   -2.1555961947   -0.0040849690    0.0014336472    0.0065321452
H    3.0568026831    0.3498758447   -1.6070768046    0.0019591808   -0.0006633447   -0.0004288600
H    2.7279860118    0.0192939041   -2.9728822888   -0.0017529783   -0.0005337611   -0.0008340659
O    0.0127791732    0.3516489292   -0.4141873907   -0.0030416153    0.0008160682    0.0017210966
H    0.8206297613    0.7689092899   -0.0791767851    0.0000575927   -0.0006175790   -0.0007631035
H    0.3888105149   -0.3868637360   -0.8366600215    0.0043446504   -0.0024662023   -0.0043420793
O   -2.4548583640   -0.5435148613    2.6417094973   -0.0069759176   -0.0033198086    0.0042325503
H   -2.7316436599    0.1231730297    1.9965715632    0.0058960542   -0.0001131285   -0.0015447189
H   -1.6447350870   -1.0591230979    2.3574311732    0.0035969736    0.0054641088   -0.0045724502
9
energy=-0.0056690297 Properties=species:S:1:pos:R:3:forces:R:3 pbc="T T T" Lattice="200.000 0.000 0.000 0.000 200.000 0.000 0.000 0.000 200.000"
O   -1.9486400259   -2.5799538663   -1.8332125267    0.0021653832    0.0032987256    0.0052039132
H   -1.1023185552   -2.7673580636   -2.3131400577    0.0003018475   -0.0004890239   -0.0020831079
H   -2.6122017720   -3.3272524468   -1.8261407403   -0.0010700932   -0.0003183026   -0.0002884778
O    2.2538488350    2.3610343156    1.0291874623    0.0063105161    0.0051972283   -0.0015730010
H    2.6848101317    1.9111833760    0.3064387251   -0.0011405414   -0.0003995495    0.0012423571
H    1.3222081593    1.9813901135    1.0706656029   -0.0087726046   -0.0098164726    0.0003414425
O   -0.2556100407    0.3720150856    0.8458376037    0.0071677219    0.0077498197    0.0030719543
H   -0.0910534462   -0.1041641999    1.6359670087   -0.0002637952   -0.0000334243   -0.0007723594
H   -0.9888038046   -0.1241250776    0.4624532413   -0.0046994627   -0.0051879723   -0.0051422067
9
energy=-0.0053381937 Properties=species:S:1:pos:R:3:forces:R:3 pbc="T T T" Lattice="200.000 0.000 0.000 0.000 200.000 0.000 0.000 0.000 200.000"
O    1.7740409208   -1.1336817183    0.2363488909   -0.0057489871   -0.0012510989   -0.0088857332
H    2.5099714871   -0.7366615006    0.7234546324    0.0005795267    0.0017118406   -0.0001542662
H    1.7621640000   -2.0994125270    0.3431388487   -0.0000668487    0.0027248553    0.0003918362
O   -0.5560417482   -0.7286540593   -1.3132334259   -0.0204150748    0.0054013739    0.0031681136
H    0.2667164315   -0.6871516598   -0.8518836698    0.0271770767   -0.0057685275    0.0142140878
H   -0.7262054929    0.1345954914   -1.5839605622   -0.0009384527   -0.0017771466   -0.0037651237
O   -1.2285079139    1.8744630620    1.0434951122    0.0052748756    0.0056672260    0.0174773321
H   -1.4631648897    0.9681416491    0.9635699803   -0.0080043590   -0.0029197450   -0.0179020784
H   -2.1826597498    2.2279730812    0.9357236127    0.0021427575   -0.0037877495   -0.0045441681
9
energy=-0.0051492106 Properties=species:S:1:pos:R:3:forces:R:3 pbc="T T T" Lattice="200.000 0.000 0.000 0.000 200.000 0.000 0.000 0.000 200.000"
O   -0.1817247708    2.2985160593   -2.3983693947    0.0009374243   -0.0072016605    0.0002689374
H    0.4092059781    3.0335062306   -2.4930419908    0.0010870625    0.0003404141   -0.0000668487
H   -0.9438047846    2.6088939809   -2.0178118063   -0.0003764095   -0.0008294379    0.0006304345
O    0.4398641889   -0.2478946149   -1.6650637898    0.0021000772   -0.0091911803    0.0023721000
H    0.3348471513   -0.3146490058   -0.6889604392   -0.0009014288   -0.0001866621    0.0032735288
H    0.1206348343    0.6317275871   -2.0344536581   -0.0037255288    0.0163434756   -0.0042999132
O   -0.2269626711   -2.1387324784    4.0799604449   -0.0023510169   -0.0004987941    0.0060112396
H    0.2557435515   -2.9120988032    3.6173630720    0.0000087418    0.0023695288   -0.0036504525
H   -0.6715442873   -1.6486549167    3.3545416150    0.0032215925   -0.0011461979   -0.0045369690
9
energy=-0.0049336964 Properties=species:S:1:pos:R:3:forces:R:3 pbc="T T T" Lattice="200.000 0.000 0.000 0.000 200.000 0.000 0.000 0.000 200.000"
O   -0.5540761377   -2.3182179471    2.6208761493   -0.0015375198   -0.0007677315    0.0037383843
H    0.0805432649   -2.2280164423    3.2974882541    0.0003537838   -0.0000298248   -0.0011066029
H    0.0019863409   -2.1483684908    1.8489274631    0.0014331330    0.0026106983   -0.0060739746
O   -0.1947499542    2.6423269721   -1.7545530906    0.0022018929   -0.0038597404   -0.0009081137
H    0.5636584823    3.2243068438   -1.9698457295    0.0001856337    0.0001568373   -0.0000010284
H   -0.9876771695    3.2308842923   -1.3630777878   -0.0011631672   -0.0005656427    0.0008844596
O    0.6800329176   -0.4672841095   -0.8538991951    0.0021859521   -0.0043518495    0.0069100974
H    1.2122292019    0.2270098585   -0.4456601423    0.0001558089    0.0011153446    0.0001892332
H    0.2213221708   -0.0329726823   -1.5650555924   -0.0038170600    0.0056919086   -0.0036314264
9
energy=-0.0048375586 Properties=species:S:1:pos:R:3:forces:R:3 pbc="T T T" Lattice="200.000 0.000 0.000 0.000 200.000 0.000 0.000 0.000 200.000"
O   -1.1089437169   -1.0349428742   -0.3559923469   -0.0046608962    0.0024014105    0.0046326140
H   -0.1690270761   -0.9389217010   -0.4919647073    0.0054795355    0.0009574789   -0.0010932331
H   -1.8342773090   -0.6101626389   -0.8615172933   -0.0006263208    0.0001779204   -0.0002622525
O    3.1453942948    0.8769926959   -1.7591302704   -0.0026379520   -0.0031501158    0.0010978611
H    3.7110456783    1.1974715364   -2.4252961536   -0.0001516951    0.0002838498   -0.0004751399
H    3.4799987498    1.2344690954   -0.9498750408    0.0005013652    0.0014418748    0.0004334880
O   -2.1153077309    0.0576960240    2.1921427602   -0.0015097519    0.0042104388    0.0093932690
H   -1.9999374389    1.0596116545    2.1185863038   -0.0003666393    0.0002859067    0.0000035995
H   -1.9359789448   -0.3509760209    1.3874049836    0.0039723547   -0.0066082498   -0.0137291777
9
energy=-0.0049440095 Properties=species:S:1:pos:R:3:forces:R:3 pbc="T T T" Lattice="200.000 0.000 0.000 0.000 200.000 0.000 0.000 0.000 200.000"
O   -2.3111993140    1.9650277024   -1.1340285926   -0.0052424797    0.0051134103   -0.0019823207
H   -2.1837065036    0.9515503774   -1.4760877292    0.0096586069   -0.0063753079    0.0037116448
H   -2.9531091874    2.3263322339   -1.8170045452    0.0000956450    0.0000555358    0.0005116496
O    2.0503332614   -1.1899969101    1.7908712278   -0.0053550941    0.0032102796   -0.0052429940
H    1.5646655628   -1.1498975948    2.5212366594    0.0001866621   -0.0014089646    0.0021139612
H    2.8958552649   -0.8498065653    2.0277899091    0.0012798952    0.0000411377   -0.0002036314
O    0.2562497937   -0.7472422200   -0.7167565923   -0.0042592898    0.0002370557   -0.0033146664
H    0.4330224739   -0.1043729766    0.0066600511    0.0032365049    0.0011806507    0.0040227483
H    0.3165535291   -1.6149372037   -0.3114858382    0.0003995495   -0.0020537974    0.0003830944
9
energy=-0.0046712698 Properties=species:S:1:pos:R:3:forces:R:3 pbc="T T T" Lattice="200.000 0.000 0.000 0.000 200.000 0.000 0.000 0.000 200.000"
O    1.3859348406    1.9661124748    0.5149856457    0.0121088683   -0.0020553400   -0.0016563048
H    1.4082576247    2.9088872703    0.3498214927   -0.0015112946    0.0013004641    0.0004288600
H    0.4654765251    1.8157351928    0.3795335541   -0.0153613141   -0.0007672172    0.0056415150
O   -0.4225265496   -3.2628864045   -1.6942296642   -0.0019257564    0.0011688236    0.0041554172
H    0.3303093812   -3.8552859265   -1.6250401334    0.0007697883   -0.0000267395   -0.0011708805
H   -0.4441524506   -2.7794419741   -2.5732964049    0.0010664937    0.0008510352   -0.0011832218
O   -0.9079716986    1.2618589451    1.2821440577    0.0053833762    0.0021221887   -0.0045158859
H   -1.3800770358    2.0386909680    0.9596419338    0.0003249875    0.0006242639   -0.0003645825
H   -1.2598462960    0.4256749529    0.8758453380   -0.0008572059   -0.0032174787   -0.0013354311
9
energy=-0.0045933908 Properties=species:S:1:pos:R:3:forces:R:3 pbc="T T T" Lattice="200.000 0.000 0.000 0.000 200.000 0.000 0.000 0.000 200.000"
O    1.0134258594    2.8815326124   -1.1253260212    0.0016953856    0.0091119903    0.0082516991
H    1.6185545894    2.4202436121   -0.4916599869   -0.0016912718   -0.0030971511   -0.0046845503
H    0.2917867729    2.2924001715   -0.9902670867   -0.0011899066   -0.0101990528   -0.0081421701
O   -0.5635718666   -1.1175507538   -0.9260038722    0.0017329237    0.0058209780   -0.0038952216
H   -1.3414124986   -1.5593265210   -1.2653237734   -0.0002087736    0.0022594856   -0.0001542662
H   -0.5517966131   -1.3684053129    0.0205830911    0.0011852786   -0.0003280728    0.0129922995
O   -0.4548153951   -1.6915201285    1.9464055919   -0.0014804413   -0.0012438998   -0.0031454878
H    0.3486693847   -2.1728534707    2.2680840396    0.0010253560   -0.0007209374    0.0008448646
H   -0.2870414907   -0.7623575284    2.1242122354   -0.0010695790   -0.0016033401   -0.0020676813
9
energy=-0.0044545583 Properties=species:S:1:pos:R:3:forces:R:3 pbc="T T T" Lattice="200.000 0.000 0.000 0.000 200.000 0.000 0.000 0.000 200.000"
O   -1.6068006320    2.6152145979   -0.7761763304   -0.0084897833    0.0101532871    0.0036998177
H   -0.7844904482    2.6444662431   -0.2950324249    0.0016352217   -0.0070561360   -0.0046716948
H   -1.8651006152    1.7326608009   -0.6097978942    0.0093629300   -0.0039697836   -0.0026950305
O    1.5373067415   -2.6347032106    0.8287983736   -0.0056358585    0.0135420014   -0.0066663568
H    2.2069815840   -3.2256348614    1.2290570262    0.0016491057    0.0006175790    0.0027454242
H    1.6139838435   -2.5521441929   -0.1120080255    0.0039517859   -0.0093459607   -0.0018547940
O   -0.0496362011    0.1133285046   -0.0227305248   -0.0085720586    0.0081025751   -0.0017334379
H    0.0041280731    0.2627128889   -0.9994997195   -0.0006278634    0.0005872400    0.0048223614
H    0.7156369399   -0.3517291257    0.3127659378    0.0067275490   -0.0126313165    0.0063542248
9
energy=-0.0043073447 Properties=species:S:1:pos:R:3:forces:R:3 pbc="T T T" Lattice="200.000 0.000 0.000 0.000 200.000 0.000 0.000 0.000 200.000"
O   -0.1787930352    2.7040949573   -2.4647957041    0.0019699794    0.0049447460   -0.0041065663
H   -1.0005582879    2.3511895772   -2.1372085447    0.0006648873   -0.0061747618    0.0052774467
H    0.0217370526    3.4652266989   -1.9590379812   -0.0015251785   -0.0018820477    0.0007821296
O    1.2222153823   -2.0381868586    1.8247678843   -0.0041245640    0.0037435265   -0.0030981795
H    2.0334504842   -1.9851595124    1.4050425031    0.0010793492    0.0004869670   -0.0001820341
H    1.1142862201   -2.9477946920    2.1586316847   -0.0005286188   -0.0001527235    0.0005034220
O   -1.0588743096   -0.6738018138    0.5457737598   -0.0033187802    0.0015591171   -0.0056250599
H   -0.1978669464   -0.6621573584    1.1509607856    0.0077405638   -0.0043235674    0.0054049735
H   -1.7257552091   -0.0959953533    0.8778545416   -0.0019566097    0.0017982297    0.0010433537
9
energy=-0.0043824209 Properties=species:S:1:pos:R:3:forces:R:3 pbc="T T T" Lattice="200.000 0.000 0.000 0.000 200.000 0.000 0.000 0.000 200.000"
O    2.3016317691    0.1285303971   -0.0145830850    0.0013025210    0.0055237584   -0.0042736880
H    1.8050194389   -0.4538570701    0.6207531051   -0.0052810463   -0.0095717036    0.0070422521
H    2.5181654363   -0.5687764919   -0.7553967539    0.0007456200   -0.0006905984    0.0002838498
O   -2.9234447209    1.6245893366   -1.2747192043   -0.0020995630   -0.0026199543    0.0028847780
H   -3.6414007463    1.6836187903   -1.9180704897    0.0006155221    0.0004103481   -0.0006273492
H   -2.4998663957    2.5144432387   -1.2609498714    0.0026600635    0.0002745938   -0.0008325233
O    0.6759582756   -1.7301009204    1.2738597874    0.0044968598    0.0058250918   -0.0026040135
H    1.2118071207   -1.7684044256    2.0638576328    0.0001486098    0.0000802184   -0.0012392718
H   -0.2532587694   -1.7724378819    1.4949495073   -0.0025891011    0.0007687599   -0.0006340341
9
energy=-0.0040478569 Properties=species:S:1:pos:R:3:forces:R:3 pbc="T T T" Lattice="200.000 0.000 0.000 0.000 200.000 0.000 0.000 0.000 200.000"
O   -1.4098760394    0.4501148519   -0.3458103404   -0.0002514539   -0.0039975515   -0.0052167687
H   -0.7701435301    1.0773535053   -0.0312068264    0.0027084003    0.0016336791    0.0017714902
H   -2.0925465539    0.4469957641    0.2586132445    0.0001223845   -0.0005075358   -0.0003527554
O    2.7560925911    0.7124410808    3.0872219363   -0.0037841499   -0.0001228987   -0.0013009783
H    2.8979156535   -0.2318678372    3.0714809373    0.0017534925   -0.0003866939    0.0002895062
H    3.5481333208    1.1642830178    3.5480595257    0.0003743526    0.0002663663   -0.0001383254
O   -1.4474313790   -1.2010751377   -2.8428366383    0.0007481911   -0.0039630987   -0.0060210098
H   -1.4166384543   -0.6699480695   -1.9599507295   -0.0016352217    0.0073564409    0.0113920447
H   -0.5599782373   -1.1753404343   -3.2769168762   -0.0000370239   -0.0002781934   -0.0004237178
9
energy=-0.0042204315 Properties=species:S:1:pos:R:3:forces:R:3 pbc="T T T" Lattice="200.000 0.000 0.000 0.000 200.000 0.000 0.000 0.000 200.000"
O    1.0002991978   -1.9583618064    0.2876625746   -0.0006767144    0.0035537791   -0.0066087641
H    1.6070726994   -2.7114509598    0.3795907184   -0.0010613515    0.0016912718   -0.0012824664
H    0.9919701381   -1.5049298818    1.1004026152   -0.0005743845    0.0015642593    0.0023803275
O   -1.9963180773    2.7936872361    1.7027873549   -0.0005605005   -0.0037044457    0.0048670986
H   -2.9232323963    2.5506642539    1.8059296529   -0.0004144619    0.0020717951   -0.0016311080
H   -1.9711459491    3.4843252052    0.9825306585    0.0019278133   -0.0008829169   -0.0027809054
O    0.9969994918   -0.8631385536   -2.0649524749   -0.0005980386    0.0050244502   -0.0080048732
H    0.9032178151   -1.3448794466   -1.1836049119    0.0015097519   -0.0093788708    0.0141282129
H    1.3765508909   -0.0322076948   -1.9021526123    0.0004473720    0.0000606780   -0.0010670079
9
energy=-0.0042294113 Properties=species:S:1:pos:R:3:forces:R:3 pbc="T T T" Lattice="200.000 0.000 0.000 0.000 200.000 0.000 0.000 0.000 200.000"
O    1.4110254080   -1.9732684832    1.9883593311    0.0020944208   -0.0024754583    0.0057916674
H    1.8101755482   -1.5830155235    1.2110525739   -0.0051396356    0.0016871580   -0.0038016334
H    0.4442190037   -1.9919186267    1.8616424578    0.0015930556    0.0017180113   -0.0036489099
O   -1.7968213593    2.3760835700   -0.9883748370    0.0031228621   -0.0076058379   -0.0023345618
H   -1.8122991767    1.7992171736   -0.1774827992   -0.0031346892    0.0016917860    0.0030668121
H   -1.8705197626    3.2527432939   -0.5942176004    0.0010634083    0.0015344345    0.0001013015
O    0.4483327353   -0.4524639717   -0.9557306509    0.0037748939   -0.0028014742    0.0025885869
H    0.7838413964   -0.7685022227   -1.8190882279   -0.0000241684   -0.0004298885   -0.0015570602
H   -0.3481617743    0.0796307685   -1.1844172831   -0.0033506619    0.0066812692   -0.0002067167
9
energy=-0.0040585510 Properties=species:S:1:pos:R:3:forces:R:3 pbc="T T T" Lattice="200.000 0.000 0.000 0.000 200.000 0.000 0.000 0.000 200.000"
O    0.0395849410    0.4454656978    1.6444141942   -0.0048609280    0.0016429350   -0.0035419520
H    0.4143812719    0.0051581389    2.4274159010   -0.0007415062   -0.0000442230    0.0001984892
H   -0.1523938552   -0.2000422451    0.9915565394    0.0012948076   -0.0019951762   -0.0018023434
O    2.3262330186   -2.0328233869   -2.4738338101    0.0007425346    0.0020183161    0.0036833627
H    3.1757218598   -2.3224101674   -2.7369062956   -0.0001866621   -0.0006031808   -0.0007728737
H    1.7367762576   -1.7717183859   -3.1998061266   -0.0012716677   -0.0003059613   -0.0009718771
O   -2.3842681198    1.6873161151    0.8268263062   -0.0069172965    0.0040227483   -0.0047030623
H   -1.6401305018    1.1505822608    1.1406360684    0.0121062972   -0.0047735105    0.0073950075
H   -3.2414666119    1.5516330332    1.4182715986   -0.0001660933    0.0000370239    0.0005162776
9
energy=-0.0042431531 Properties=species:S:1:pos:R:3:forces:R:3 pbc="T T T" Lattice="200.000 0.000 0.000 0.000 200.000 0.000 0.000 0.000 200.000"
O    0.6243225207   -0.5722628554    3.0799169927    0.0000215973   -0.0006530603   -0.0057623568
H    1.5417199699   -0.5016795494    2.8957605776    0.0009893606    0.0005491877    0.0023767279
H    0.5956764310   -0.8529491478    4.0179859663   -0.0010670079    0.0000380523    0.0003131604
O   -0.7442577724    1.5521187593   -2.0989456428   -0.0038669394    0.0055623250    0.0003059613
H    0.0316231543    1.1360923612   -1.7370321992    0.0026024708   -0.0079251690   -0.0005419886
H   -1.0027969519    0.9738943456   -2.8757353250    0.0014624436   -0.0020609964    0.0007003686
O    0.0992914416   -0.9041374354   -1.0033009916    0.0017066984    0.0042536334   -0.0037692375
H   -0.4374105434   -1.2493591756   -1.7316496401    0.0001887190    0.0008350944   -0.0016491057
H   -0.4011003820   -0.7079972148   -0.2148558450   -0.0020383707   -0.0005975244    0.0080274989
9
energy=-0.0040183870 Properties=species:S:1:pos:R:3:forces:R:3 pbc="T T T" Lattice="200.000 0.000 0.000 0.000 200.000 0.000 0.000 0.000 200.000"
O    1.7341725325    2.3377123552    2.3185489254   -0.0016172240   -0.0027845049   -0.0049046368
H    1.6264200318    3.3000284373    2.1970357976    0.0000714767    0.0004026348   -0.0005116496
H    1.1656838690    2.0275778833    3.0316471430   -0.0003800091   -0.0004514857    0.0005255335
O    0.8605294694    0.8001278413   -0.0377939361   -0.0024857427   -0.0043307665   -0.0070916173
H    0.3217246305    0.0314786346    0.2639168816   -0.0007831581   -0.0005970102    0.0001223845
H    1.0944784987    1.4753636476    0.6783255377    0.0039091055    0.0070602498    0.0104263383
O   -2.5566715863   -3.2356025026   -2.3686627062   -0.0043101977   -0.0039168188   -0.0038617972
H   -1.7352576168   -2.8706848143   -2.6738086088    0.0015771148    0.0031511443    0.0038278587
H   -3.0767660338   -2.4118288906   -2.1016192519    0.0040176061    0.0014670716    0.0014675858
9
energy=-0.0039280996 Properties=species:S:1:pos:R:3:forces:R:3 pbc="T T T" Lattice="200.000 0.000 0.000 0.000 200.000 0.000 0.000 0.000 200.000"
O    0.2872370782    0.1568347815    0.4460939714    0.0005630716    0.0003609829    0.0045122864
H    0.0159574059   -0.1972982628   -0.3402090683   -0.0014588440   -0.0013493150   -0.0056394581
H   -0.4096260326    0.7612659316    0.7286273380   -0.0005054789    0.0004484004    0.0000961593
O    0.4354324482   -0.3248553210    3.5349678009    0.0000560501   -0.0008258384    0.0072438266
H    0.3790066031    0.4990863855    3.0802208070    0.0002668805   -0.0026343525   -0.0044114991
H    0.2954767135   -0.9830706293    2.8018451771    0.0001959181    0.0041883274   -0.0046655241
O   -0.6601192405    0.1273468273   -3.8297309057    0.0017987439   -0.0000987304    0.0039569281
H   -1.2185353403    0.8457404697   -4.2393426942   -0.0010181569    0.0005203913   -0.0001892332
H   -0.0552384503   -0.2800460669   -4.4334545010    0.0001002730   -0.0006093515   -0.0009019431
9
energy=-0.0040319111 Properties=species:S:1:pos:R:3:forces:R:3 pbc="T T T" Lattice="200.000 0.000 0.000 0.000 200.000 0.000 0.000 0.000 200.000"
O   -1.2889453047    0.0075455223    1.5552697528    0.0028919771   -0.0065136332    0.0040515447
H   -2.0095834251   -0.0215495054    2.1408573972   -0.0007826439    0.0001846052   -0.0000354812
H   -1.5992284689    0.5942183520    0.8187719595   -0.0013421159    0.0092945386   -0.0089443543
O    2.7238155379   -2.0022396757   -1.2639094184    0.0009322821    0.0027757632   -0.0051617471
H    3.1082577568   -2.5604829098   -0.5834976584   -0.0019668941    0.0006067804    0.0019483821
H    1.8249698576   -2.3903411533   -1.4543613974   -0.0005378748   -0.0019324413    0.0038905936
O   -1.3983617969    1.9795097449   -0.2780986532   -0.0008824027   -0.0054008597    0.0051535196
H   -0.8078048155    2.6740564727    0.0937580927    0.0010500386    0.0015848281    0.0000149124
H   -1.0961667535    1.9451447510   -1.2260519237    0.0006381479   -0.0006000955   -0.0009178839
9
energy=-0.0038491322 Properties=species:S:1:pos:R:3:forces:R:3 pbc="T T T" Lattice="200.000 0.000 0.000 0.000 200.000 0.000 0.000 0.000 200.000"
O    1.0002565445    3.5379268900    2.8471695676   -0.0012485278   -0.0002709943   -0.0036442819
H    1.1449736568    4.5141144886    2.8252728245    0.0004257747    0.0003301297    0.0012870943
H    1.5347959949    3.2016960307    3.5486431753    0.0001681502   -0.0007281365    0.0007795585
O   -0.2828424650   -3.1231064147   -1.2329855826    0.0013050921   -0.0081637674    0.0024600317
H    0.5761637207   -3.3746843716   -1.0320046156    0.0003645825   -0.0004895381   -0.0001326689
H   -0.3636021847   -2.1457421402   -1.4433516872   -0.0031352034    0.0140608500   -0.0048439587
O   -0.7872993926   -0.5457888408   -1.6962066970    0.0020167735   -0.0071826343    0.0016768736
H   -1.2528625432   -0.5279020821   -0.7594830242   -0.0010099294    0.0012711535    0.0018424527
H   -0.5300691160    0.4115849978   -1.8370011155    0.0011117451    0.0011744800    0.0005759272
9
energy=-0.0038217575 Properties=species:S:1:pos:R:3:forces:R:3 pbc="T T T" Lattice="200.000 0.000 0.000 0.000 200.000 0.000 0.000 0.000 200.000"
O   -1.6905067556   -0.6560482491    0.8621814240   -0.0017457792    0.0074135194    0.0029192307
H   -1.0911873266   -1.4745392626    0.5542828410    0.0029058610   -0.0100540425   -0.0077333647
H   -1.8992847679   -0.1804528923   -0.0459260705    0.0000030853   -0.0000622207   -0.0001280409
O   -0.7460770953   -2.7792429368   -0.7184111517    0.0001167281    0.0044408097    0.0049642864
H   -1.2885419588   -3.5078572669   -1.1804919799   -0.0010109578    0.0001717497   -0.0000637634
H   -0.0991710491   -3.2214277779   -0.1602881140    0.0009333105   -0.0002792218   -0.0001259841
O    2.4411412402    3.5215647890   -0.1388600725    0.0030493286    0.0013719407   -0.0013837678
H    1.4968807432    3.3584943562    0.0021588576   -0.0022851967   -0.0022666847    0.0015298065
H    2.8089577493    3.6562262031    0.7523171403   -0.0019663798   -0.0007363640    0.0000221115
9
energy=-0.0040049990 Properties=species:S:1:pos:R:3:forces:R:3 pbc="T T T" Lattice="200.000 0.000 0.000 0.000 200.000 0.000 0.000 0.000 200.000"
O    2.0764491402   -1.0188389891   -0.1189100469   -0.0016269942   -0.0070905888   -0.0061233397
H    2.1256223743   -0.2318126935    0.5458597271   -0.0031696562    0.0106608229    0.0108953076
H    2.8303425770   -0.8278741518   -0.7168289680   -0.0000071991   -0.0003805233    0.0000164551
O    1.5522287621    1.0031124705    1.5086535502    0.0014752991   -0.0029326005   -0.0037162728
H    1.9503517010    1.3485008599    2.3813576796    0.0006931695   -0.0000169693   -0.0005733560
H    0.7002796002    0.5277137660    1.7797718448    0.0006684869    0.0002735654   -0.0007811012
O   -3.6556921033    0.0371776410   -1.4445222835   -0.0018815334    0.0029912216    0.0051627755
H   -3.1621654010   -0.7365017524   -0.9604592396    0.0017560636   -0.0031516585   -0.0043698473
H   -4.0155919377   -0.4205534439   -2.1601112805    0.0020933923   -0.0003537838   -0.0005106211
9
energy=-0.0038402613 Properties=species:S:1:pos:R:3:forces:R:3 pbc="T T T" Lattice="200.000 0.000 0.000 0.000 200.000 0.000 0.000 0.000 200.000"
O   -0.9688044188   -2.0501746652   -2.9681333008    0.0048686413    0.0087998583    0.0003702389
H   -0.3453683170   -2.7910334163   -2.8973458835   -0.0015004959   -0.0032071943    0.0014465027
H   -1.1585152304   -1.8435420843   -3.8777893251   -0.0017622342   -0.0026981159   -0.0012007053
O    0.7331531546    1.5220718159    0.3043546817    0.0000581069   -0.0032982114    0.0085550893
H    1.0365197572    0.7126254915   -0.1843760181   -0.0003033902   -0.0019283275   -0.0022502297
H   -0.1310912578    1.6953677362   -0.1455049786   -0.0022599998   -0.0005990671   -0.0021036768
O    0.2494910154    0.6142205152    2.8301716163   -0.0034252239   -0.0043986436    0.0072248004
H   -0.2824264334   -0.1267880808    2.4835213809    0.0009363958    0.0005342753    0.0021844094
H    0.6611813352    0.9862891514    1.9800769880    0.0033887142    0.0067959404   -0.0142259148
9
energy=-0.0038067913 Properties=species:S:1:pos:R:3:forces:R:3 pbc="T T T" Lattice="200.000 0.000 0.000 0.000 200.000 0.000 0.000 0.000 200.000"
O    1.2951457464    1.4357535882   -1.7094064981    0.0042119815   -0.0047657972    0.0024831716
H    0.6395785669    2.0897754190   -1.3114490812   -0.0016876722    0.0002982480    0.0009266256
H    1.9239843970    2.0762334941   -2.1679704923    0.0000344528    0.0001300978   -0.0003650967
O    2.1780167507   -0.3499295358    0.1108100021    0.0021016199   -0.0051576333    0.0067650871
H    1.9947479080    0.1098115511   -0.6941607058   -0.0044788620    0.0097784203   -0.0098678947
H    1.2968749762   -0.7625080125    0.2802453983   -0.0020296290   -0.0008618338    0.0003563549
O   -3.4388871711   -1.1120647875    1.6119246131   -0.0028451830    0.0009060568   -0.0011497974
H   -3.8538839881   -1.6024127836    2.3101499856    0.0013498293    0.0001784346   -0.0003357861
H   -2.5454080358   -1.4943391936    1.3716067225    0.0033424344   -0.0005049647    0.0011868213
9
energy=-0.0037340552 Properties=species:S:1:pos:R:3:forces:R:3 pbc="T T T" Lattice="200.000 0.000 0.000 0.000 200.000 0.000 0.000 0.000 200.000"
O   -0.1711803378   -0.6660635723   -0.9905436617   -0.0031208052    0.0058801134   -0.0016851011
H    0.2498958743   -0.6927162841   -1.7888551802   -0.0000159408    0.0001069579    0.0001049010
H    0.1117151039   -1.4296386522   -0.4812144925    0.0046727232   -0.0054836492    0.0053957175
O    1.4816332804   -2.8664945574    0.8366364437   -0.0033198086    0.0014850693   -0.0047308302
H    1.3445550429   -3.7015803829    0.1650445505    0.0004422298   -0.0011647098    0.0006042093
H    2.0994472206   -3.0072745764    1.5928770796    0.0001671217    0.0013714265    0.0008752036
O   -1.3539838804    3.6540392938    0.2319556076   -0.0009574789    0.0022615425    0.0019324413
H   -1.5912775559    4.1199236057   -0.6079688044    0.0003789806   -0.0013590852   -0.0004247463
H   -1.5233006218    2.7828246399   -0.1188680394    0.0017540067   -0.0030986938   -0.0020717951
9
energy=-0.0036149510 Properties=species:S:1:pos:R:3:forces:R:3 pbc="T T T" Lattice="200.000 0.000 0.000 0.000 200.000 0.000 0.000 0.000 200.000"