18
energy=-0.0472347756 Properties=species:S:1:pos:R:3:forces:R:3 pbc="T T T" Lattice="200.000 0.000 0.000 0.000 200.000 0.000 0.000 0.000 200.000"
C    2.0347079983   -0.8435553724    1.9097983330    0.0440820812   -0.0389306185   -0.0135358307
H    0.9472190836   -0.3091417456    1.9134238323   -0.0754994215    0.0583902714   -0.0115411687
H    2.7705148242   -0.0089080414    1.6727690081   -0.0040844548   -0.0005589579   -0.0000056564
H    2.1966978433   -1.1820323101    2.9253973336   -0.0051370645    0.0003661251   -0.0007235085
C    1.8655008687   -1.9117798141    0.9627858700    0.0073831804    0.0263368401    0.0293182915
N    1.7149702158   -2.7321150134    0.1526781195   -0.0207529178   -0.0009163412   -0.0301672699
C   -1.9103551913    3.0171381296    0.3373061458   -0.0009945028    0.0029212876    0.0064329006
H   -2.8942685951    2.8733066441    0.8081154203    0.0005070216   -0.0011595676    0.0017313810
H   -2.3896325415    2.6826090401   -0.6991691463    0.0112994850   -0.0118939241   -0.0045174286
H   -1.6296454225    4.0351203867    0.4190385490    0.0008026985   -0.0018743343    0.0026400089
C   -1.1480369925    1.9581815369    0.8427577025    0.0072705661   -0.0205256323   -0.0229383557
N   -0.5240261537    1.0839217479    1.3348846800    0.0321521616   -0.0102808139    0.0317556975
C   -0.2619161011   -1.5058158350   -2.1308691092   -0.0101460880    0.0109415874   -0.0128092369
H   -1.0957901189   -2.1043589155   -2.3368135476   -0.0025196813    0.0012881228    0.0021221887
H    0.2597649840   -2.0243777233   -1.3557764628    0.0263435249   -0.0157618920    0.0244918163
H    0.5383358882   -1.3253959254   -2.9690455458    0.0018758770    0.0024374060    0.0035743479
C   -0.6684346268   -0.1355101114   -1.7763736472   -0.0040104070   -0.0050805002   -0.0178208316
N   -1.0217196800    0.9622974580   -1.6394331843   -0.0085741155    0.0042999132    0.0119926545
18
energy=-0.0406599061 Properties=species:S:1:pos:R:3:forces:R:3 pbc="T T T" Lattice="200.000 0.000 0.000 0.000 200.000 0.000 0.000 0.000 200.000"
C   -2.9238221316    1.8784024776   -0.3854580864   -0.0038931647    0.0053772056   -0.0104895875
H   -3.8876086829    2.1657849602   -0.8384018508    0.0012644686    0.0012516131   -0.0032246778
H   -2.5348656738    2.5977069393    0.2554789658    0.0029979065   -0.0053694922    0.0013781114
H   -3.1464049568    1.0061424214    0.2304316287    0.0149957032   -0.0082552986    0.0087304385
C   -1.8651427144    1.5267369645   -1.3116915711    0.0022486870   -0.0055643819    0.0105764907
N   -0.9319009200    1.2136767997   -1.9143759946    0.0221351430   -0.0099013190    0.0032457609
C    0.3261356002   -2.0090751460    2.1968308385   -0.0141631799    0.0014413605    0.0118723268
H    1.1026434083   -2.1519919088    1.5189237107    0.0296530492    0.0115036306   -0.0222410724
H   -0.3859995102   -2.8960616842    2.0627750451   -0.0038977927    0.0010505528    0.0003008191
H    0.7248916924   -1.8218777484    3.1934761394    0.0009569647    0.0021823525   -0.0012953219
C   -0.4984903257   -0.8305201905    1.8564271350    0.0025546483   -0.0089608094    0.0041657017
N   -1.2875032252   -0.0635552914    1.5528562148   -0.0119525453    0.0061562499   -0.0057649279
C    2.1974569200    0.1956944422   -1.7692106535    0.0263373543   -0.0005209055    0.0087170688
H    2.4832210403    1.2244637350   -1.7133132782   -0.0051159815   -0.0010968327   -0.0000761047
H    1.0392387692    0.0681676080   -1.7757177193   -0.0460772574    0.0175143560   -0.0059839859
H    2.7600896859   -0.2110249957   -2.5187906506    0.0004093197   -0.0023458747    0.0008788031
C    2.4380147455   -0.5327956654   -0.5231683913    0.0019535243    0.0098396125   -0.0236736912
N    2.6315406016   -1.3446514802    0.2770244755   -0.0204058189   -0.0143004768    0.0228817914
18
energy=-0.0221153737 Properties=species:S:1:pos:R:3:forces:R:3 pbc="T T T" Lattice="200.000 0.000 0.000 0.000 200.000 0.000 0.000 0.000 200.000"
C    1.1973601554    2.2199284713   -0.5970403043    0.0126688547    0.0007553902   -0.0028112444
H    0.8809319966    2.5209265805    0.3535860570   -0.0097537377   -0.0013405733    0.0000869033
H    0.1938035838    1.7986118223   -0.9010037373   -0.0203060601    0.0052419655    0.0105651779
H    1.5031641593    3.0605955533   -1.2820705607    0.0002020887   -0.0007235085   -0.0015817428
C    2.2123294999    1.1700880980   -0.5525527378   -0.0027654788    0.0130555486   -0.0009559362
N    2.9911063884    0.4544094004   -0.1678612125    0.0014716996   -0.0167599943   -0.0032956403
C   -2.2745346390   -0.2175049046    2.1012160449   -0.0073713533    0.0198041807    0.0094200085
H   -3.3782027259   -0.2603722370    2.1663833462    0.0008402366    0.0011863071   -0.0010166143
H   -1.7443645786   -0.2038438607    3.0409273831   -0.0003944073    0.0004900523   -0.0014886688
H   -1.8799355756   -0.9810797351    1.4602692808    0.0212959348   -0.0142166589   -0.0255207719
C   -2.0005209824    0.9280825829    1.3290301169   -0.0030071625   -0.0187299737    0.0090471985
N   -1.8264202996    1.7671026360    0.5942913343    0.0162380603    0.0087340381   -0.0093259061
C    0.4218043010   -2.5596849429   -1.9624080882   -0.0028554674    0.0016269942    0.0021371011
H    0.0376223481   -2.0396070957   -2.8602890854    0.0011359135    0.0002180296    0.0010551808
H    0.3286767515   -3.6038116973   -1.9900112744   -0.0006381479   -0.0001964323    0.0011472263
H    1.4270126552   -2.3082979489   -1.8239339859    0.0029377427    0.0049534877    0.0033666027
C   -0.1035288108   -2.0021086236   -0.8403086153    0.0084491598   -0.0021309305    0.0030025345
N   -0.5062557472   -1.6809381509    0.1533259438   -0.0181468475   -0.0019694652    0.0061691054
18
energy=-0.0198206647 Properties=species:S:1:pos:R:3:forces:R:3 pbc="T T T" Lattice="200.000 0.000 0.000 0.000 200.000 0.000 0.000 0.000 200.000"
C    2.2493228818    0.2218659181   -2.0414969545    0.0194349702    0.0049992534    0.0083545432
H    2.8552884983    0.6379993867   -2.9040524386    0.0015539749    0.0005013652   -0.0000786758
H    1.6206235127    0.9765751106   -1.5718271345   -0.0008782889   -0.0021268167   -0.0020573969
H    1.4407800845   -0.5353810798   -2.4970190696   -0.0395394558   -0.0100026205   -0.0083535148
C    3.2201594355   -0.3688073049   -1.2172227877   -0.0041744434    0.0069594626   -0.0049288051
N    3.8978723675   -0.8999255508   -0.4830503889    0.0037394127   -0.0019622661    0.0048624707
C   -1.9030097304   -1.4138329718   -0.7277737694    0.0009883321   -0.0050244502   -0.0100812962
H   -1.6529660428   -2.3789583225   -0.2416724772    0.0004381160    0.0019787211   -0.0001691786
H   -2.9036609008   -1.3970628171   -1.0885557899    0.0003147031    0.0012891512   -0.0003995495
H   -1.5820495753   -0.5365990410    0.0934678924   -0.0020985346    0.0102587024    0.0132730639
C   -1.0577456011   -1.1508632669   -1.8481278794   -0.0090363998   -0.0032349622    0.0130210958
N   -0.4372033085   -0.8818037974   -2.7644757244    0.0238444125    0.0042963137   -0.0012418429
C   -1.3277311098    2.2823831853    3.8454752953   -0.0015873992    0.0013580568   -0.0003398999
H   -1.1255805395    1.3932320166    4.4886164034   -0.0001028441   -0.0008587485   -0.0003255017
H   -2.1672888027    2.9743477426    4.1866147331   -0.0006751717   -0.0005008509    0.0000442230
H   -0.4256685358    2.7277968874    3.3672302925    0.0007620750   -0.0010500386   -0.0012860659
C   -2.0791672817    1.4613893348    2.8960247896    0.0016131102   -0.0039085913   -0.0011461979
N   -2.4070033276    0.6188523837    2.1941454915    0.0054024024   -0.0029706528   -0.0091459288
18
energy=-0.0180298018 Properties=species:S:1:pos:R:3:forces:R:3 pbc="T T T" Lattice="200.000 0.000 0.000 0.000 200.000 0.000 0.000 0.000 200.000"
C    1.7022108345    0.0486442934    1.2042676812    0.0019072445    0.0143513847   -0.0175822332
H    2.5087062024   -0.2599252847    1.8115548437   -0.0039096198   -0.0026276676   -0.0031141204
H    2.1151802490    0.3370925063    0.1566365889    0.0126128046    0.0019082729    0.0152548704
H    0.9083497174   -0.6231555094    1.1448414644   -0.0231193613   -0.0279309242    0.0024230078
C    1.0678502356    1.1702279442    1.8931123243    0.0078310666   -0.0125310435   -0.0088939607
N    0.7108054424    1.9249787377    2.6913697055   -0.0164149522    0.0149447953   -0.0053833762
C   -1.1172629764   -2.1292075557   -2.0400363805   -0.0070191122   -0.0040088643    0.0009405096
H   -0.4660225129   -2.5640519323   -2.8206013608    0.0010659794    0.0005239909    0.0010356404
H   -1.0941094468   -1.0460693504   -2.2180498063    0.0060544342    0.0054024024    0.0043487642
H   -2.2292670433   -2.4240608576   -2.0018644474    0.0028585527   -0.0020070033    0.0010217565
C   -0.5410903767   -2.2576083158   -0.7342466012    0.0022461159    0.0128652870   -0.0125762949
N   -0.2461636770   -2.5123123446    0.3565352548    0.0141436395    0.0109775829    0.0107014464
C   -1.2959898562    2.0420744179   -0.3778536571   -0.0035733194   -0.0075405319   -0.0146902561
H   -0.7132321776    2.2463187440    0.6415547485    0.0219165992   -0.0006057519    0.0259228924
H   -2.2775112197    1.6353814739   -0.3467285600   -0.0014110215    0.0004370876   -0.0007373924
H   -1.2813174492    3.0222629566   -0.9116780899    0.0011518543    0.0014454743   -0.0000663345
C   -0.4301104098    1.2258752335   -1.1357610570   -0.0034900157    0.0065234034    0.0061814467
N    0.2441513783    0.4782862945   -1.7001237301   -0.0128503746   -0.0121268661   -0.0047858518
18
energy=-0.0169798505 Properties=species:S:1:pos:R:3:forces:R:3 pbc="T T T" Lattice="200.000 0.000 0.000 0.000 200.000 0.000 0.000 0.000 200.000"
C   -2.5702934765   -1.5558283138    1.8838519180   -0.0022707985   -0.0083745978    0.0250451178
H   -2.3659604100   -1.1759866375    0.8326637927    0.0053165275    0.0278049401   -0.0457723245
H   -3.5475453762   -1.7473654405    2.2852610741   -0.0013061205   -0.0000375381    0.0012418429
H   -2.0840865753   -2.4568883345    1.8856464967   -0.0002905347   -0.0015987121    0.0009790762
C   -2.0675460176   -0.6932662765    2.9142127698   -0.0040500020   -0.0044773194   -0.0037615242
N   -1.7131476234    0.1084279920    3.6508001648    0.0027012012    0.0013734834    0.0034298519
C    4.3228531744    0.0943233823   -2.4779569092    0.0003234448   -0.0019571239    0.0000982161
H    4.9817031252   -0.5080654215   -1.7672646762   -0.0010330693   -0.0005718134    0.0008489783
H    4.6801386665    1.0496792124   -2.6252749000   -0.0000457656    0.0002761365    0.0007800728
H    4.1432740620   -0.6047782022   -3.3251709911   -0.0004118908   -0.0008093833    0.0004499431
C    3.0234819584   -0.0487964084   -1.8088826397    0.0025592763    0.0005707849    0.0006576882
N    2.0471403798   -0.1344106937   -1.1976671263   -0.0061053420    0.0111308206   -0.0065074626
C   -0.2323775814    1.7211087280   -1.1967439943   -0.0080619517    0.0042058109   -0.0027911898
H    0.5887789378    1.4221319411   -1.9467125314    0.0030914947   -0.0063691372    0.0026703479
H    0.3553617615    1.8313721029   -0.1467256846   -0.0000046280   -0.0035861750   -0.0016398497
H   -0.7271189654    2.6104825343   -1.5660832403   -0.0003476132   -0.0024281500    0.0015272354
C   -1.1139707711    0.6279488239   -0.9177973652    0.0131121129    0.0008469214   -0.0009158270
N   -1.9354444975   -0.1290286070   -0.6197738854   -0.0031763411   -0.0159999762    0.0236587788
18
energy=-0.0150158959 Properties=species:S:1:pos:R:3:forces:R:3 pbc="T T T" Lattice="200.000 0.000 0.000 0.000 200.000 0.000 0.000 0.000 200.000"
C    2.1413692721    0.4947489524    0.3679919980    0.0041693012    0.0008680045    0.0022137200
H    2.5025543638   -0.4603787718    0.5173930338    0.0000447372   -0.0007173378    0.0011004322
H    2.6054158939    1.3666612793    1.0793117213   -0.0008237815   -0.0008926871    0.0006576882
H    2.2973390271    0.7298069408   -0.6987252941   -0.0047981931    0.0003337292   -0.0012860659
C    0.7584097527    0.4810167298    0.6801511134    0.0027012012   -0.0000329101   -0.0143225883
N   -0.3194656967    0.2714162172    1.0063181557   -0.0026724048   -0.0074304887    0.0041867847
C    1.0025196431    3.0338279366   -3.5767578589   -0.0010721501   -0.0003964641   -0.0025376790
H    1.7941044311    3.6420102360   -3.1997801193   -0.0002313993   -0.0003481274    0.0008263526
H    0.2222317810    3.8462776150   -3.6051171788   -0.0002216291   -0.0005111353    0.0005898111
H    1.3735090179    2.6359883185   -4.5650026488   -0.0002637952   -0.0007631035    0.0002709943
C    0.4856635347    1.9869219663   -2.6872386223    0.0023222205   -0.0022450874    0.0016938429
N    0.3488087002    1.1019156599   -1.9371115831   -0.0001028441    0.0045863342    0.0094662883
C   -0.5883646366   -2.4082842368    2.9603204949    0.0021031625   -0.0045662796    0.0018378247
H   -0.8952897428   -2.1674155424    3.9627333008   -0.0006062662    0.0009477087   -0.0003702389
H    0.0672353576   -1.6569831699    2.6230472658   -0.0023808417    0.0084625296   -0.0029644822
H   -0.0391257603   -3.3368426202    2.8099913398   -0.0005702707   -0.0024188940    0.0003440136
C   -1.6352988302   -2.5673684873    1.9230177607    0.0025196813    0.0045616516    0.0034529918
N   -2.5994605699   -2.5795875779    1.2933382802   -0.0001182708    0.0005641001   -0.0051596902
18
energy=-0.0143375160 Properties=species:S:1:pos:R:3:forces:R:3 pbc="T T T" Lattice="200.000 0.000 0.000 0.000 200.000 0.000 0.000 0.000 200.000"
C    0.2746535811   -1.2210804386   -2.3329852015    0.0002812787   -0.0056502567    0.0031660567
H    0.8731384011   -1.8460566077   -2.9361116096    0.0002920773   -0.0005687281    0.0008453788
H    0.3088905816   -0.1625806437   -2.6725636234    0.0031830260    0.0060734603    0.0038150032
H   -0.7745767411   -1.4677254136   -2.3577579299    0.0015570602    0.0009909032    0.0014850693
C    0.7291441635   -1.3634693748   -0.9886674043    0.0019602092    0.0065347163   -0.0023299339
N    1.2413207617   -1.4916475876    0.0383469363   -0.0087052417   -0.0059716446    0.0077112532
C   -0.4925185943   -0.4787358203    2.0538350694   -0.0121412643    0.0128246635    0.0168109022
H    0.1473945166   -0.1413430280    2.8964544173    0.0007667030   -0.0017416654    0.0020049464
H   -0.8082288445    0.0077885910    1.1168793656   -0.0008546348   -0.0061814467   -0.0069630621
H    0.0323760493   -1.3232840092    1.6524060108    0.0187901375   -0.0086620472   -0.0270855454
C   -1.6957818801   -0.9534455063    2.7966049908    0.0008782889    0.0047714536   -0.0000735336
N   -2.6994814675   -1.3173438806    3.2701227903   -0.0015082092   -0.0003584118    0.0016336791
C    0.0293281745    3.0006880542   -0.9663009440   -0.0013801683    0.0003301297   -0.0015179794
H    0.3742034990    3.3745321877   -0.0670787657   -0.0009852468   -0.0012870943    0.0005270762
H   -1.0004437922    2.5427510890   -0.8428367703    0.0016583617   -0.0008638907    0.0029418565
H   -0.0959567118    3.8063667406   -1.6714623233    0.0017550351    0.0000637634   -0.0013405733
C    0.9094195280    2.1241730584   -1.5689087928   -0.0040196630    0.0074957947    0.0013261751
N    1.7367482782    1.5141430490   -2.0942362846   -0.0015277496   -0.0077991849   -0.0029572831
18
energy=-0.0138203908 Properties=species:S:1:pos:R:3:forces:R:3 pbc="T T T" Lattice="200.000 0.000 0.000 0.000 200.000 0.000 0.000 0.000 200.000"
C   -1.5295445836   -3.0675659623    0.2190088269   -0.0011580249   -0.0026117268   -0.0008325233
H   -1.6611185795   -4.0530252754    0.6530593016    0.0003820660    0.0003697247    0.0002211149
H   -2.5519624572   -2.6265643165    0.1874629664    0.0000709625   -0.0012037906   -0.0004082912
H   -0.8823377667   -2.4487137682    0.7258891258    0.0014727280   -0.0009687917    0.0015164368
C   -0.8567687909   -3.2794669007   -1.0241736774    0.0027310260    0.0014639862   -0.0012675540
N   -0.1648827644   -3.0672726729   -1.9222521802   -0.0004838817    0.0178815096   -0.0008556632
C    0.5163753835   -0.3027303830   -2.6543998058    0.0014089646    0.0198705151    0.0036098291
H    1.6472852333   -0.2878628791   -2.5871668015   -0.0009672491   -0.0006283777    0.0004612559
H    0.2485855263   -0.0172529501   -3.5736824004   -0.0011030033   -0.0010824345    0.0001522093
H    0.2102047815   -1.4253562081   -2.5521741102   -0.0070052282   -0.0306331538    0.0067476036
C   -0.1672322585    0.4596637968   -1.6090633909    0.0078588345   -0.0029824799   -0.0112953712
N   -0.5934378753    1.1919251646   -0.8324573947   -0.0022749122    0.0087983157    0.0074155763
C    0.4435030755    3.6392624973    1.8874888335   -0.0031922819    0.0006957406    0.0006484323
H    1.1941825140    4.0583704265    1.2625334335   -0.0009189123   -0.0022656563   -0.0008330375
H    0.0419019705    4.3967673968    2.6158007919    0.0023407325   -0.0000313675    0.0022358315
H   -0.3476193718    3.1739244461    1.1330719717    0.0024286642   -0.0072715945   -0.0068792441
C    0.9659715165    2.5646927931    2.6730613421   -0.0006895699    0.0022260613   -0.0033295788
N    1.4476985043    1.8080406335    3.3439930498   -0.0009019431   -0.0016264800    0.0026955448
18
energy=-0.0131226909 Properties=species:S:1:pos:R:3:forces:R:3 pbc="T T T" Lattice="200.000 0.000 0.000 0.000 200.000 0.000 0.000 0.000 200.000"
C    0.1609864880   -2.0703334410   -2.8349563358   -0.0007229943   -0.0021299020    0.0016866438
H   -0.4254651976   -2.5529985627   -3.6014247903   -0.0005702707    0.0014583298   -0.0006443185
H    0.3232292375   -2.7590034572   -1.9414357279    0.0004597133    0.0020507120    0.0028621523
H    1.2007728001   -1.7007462223   -3.1283192292   -0.0000956450    0.0006797997    0.0005815836
C   -0.3490124226   -0.7413205779   -2.5544651884    0.0009374243   -0.0015555175   -0.0003692104
N   -0.7042102605    0.3274150772   -2.4033323630    0.0023299339    0.0026466938    0.0007996131
C   -0.6112928001   -1.5367752364    1.8659958560    0.0041986118   -0.0117340015    0.0031105208
H   -0.8217153534   -0.5870514186    1.4143872412    0.0002391126    0.0291234019    0.0019951762
H   -1.0300826597   -1.6932705573    2.7633554839   -0.0012145892    0.0026760044   -0.0015097519
H   -0.8813911130   -2.4286244241    1.3867152605   -0.0004807963   -0.0056302021   -0.0005008509
C    0.8618018317   -1.5588846857    1.7165144440   -0.0047616834    0.0038283729    0.0009610784
N    1.9658207078   -1.8719157168    1.6293891069    0.0017653196   -0.0025957859   -0.0044984024
C   -0.0777095857    3.4341827786    0.0716110347   -0.0000560501    0.0017066984    0.0036931329
H    0.8530853888    3.9502862529    0.5027739660   -0.0013703981   -0.0010546666    0.0001326689
H   -0.6931978441    4.3063812905   -0.1022158841   -0.0002571103   -0.0010258702    0.0000231399
H    0.2883913410    3.1743795490   -0.8763346352   -0.0011621387   -0.0023510169   -0.0010850056
C   -0.5061511535    2.4720570542    1.0032978458   -0.0006304345   -0.0035141841   -0.0024687734
N   -0.7291970129    1.5663353138    1.6593680538    0.0013950807   -0.0125783518   -0.0047678541
18
energy=-0.0129571913 Properties=species:S:1:pos:R:3:forces:R:3 pbc="T T T" Lattice="200.000 0.000 0.000 0.000 200.000 0.000 0.000 0.000 200.000"
C    2.2681746438   -1.2225929771   -1.9644602458    0.0027582797   -0.0030462433   -0.0069214102
H    2.8473537588   -1.5361748862   -2.8997334229    0.0005229624   -0.0042546618   -0.0006402047
H    3.0173185939   -1.0797733007   -1.1488077464   -0.0044109849    0.0019550670    0.0007420204
H    1.5993413943   -0.3283289916   -2.0494312973   -0.0021612695    0.0028097017    0.0126313165
C    1.3983972597   -2.3750639250   -1.7799170775    0.0016501341    0.0042202090    0.0009657064
N    0.5815147901   -3.1228431002   -1.4623162334   -0.0014470170   -0.0007934425    0.0012438998
C   -2.0367788448   -0.8627109252    1.8743010532   -0.0038648826    0.0040818837   -0.0007276222
H   -0.9645276854   -1.3005915812    1.7708453488    0.0012510989   -0.0044845185    0.0012834948
H   -2.5467756444   -1.3135424849    1.1042999393    0.0000246826   -0.0005944391   -0.0011446552
H   -2.2433832912   -1.2575314136    2.8702936630    0.0018630215   -0.0000025711    0.0001429533
C   -1.8969560099    0.5441494675    1.8520715813   -0.0034987574   -0.0078866024    0.0021633264
N   -1.7977564441    1.6661750040    1.8481924826    0.0097856194    0.0059248506   -0.0087844317
C    0.0103032762    2.9770915313   -0.2998995068    0.0018686779   -0.0017180113   -0.0010685506
H    0.7482162674    3.4738431648   -0.9529190340    0.0017519498    0.0000195404   -0.0012870943
H   -0.3111135244    3.6624078075    0.4909851769   -0.0026631489   -0.0015015244    0.0025952717
H   -0.9533517463    2.8697297389   -0.9240591374   -0.0008268668   -0.0003327008    0.0020923639
C    0.5306654346    1.6844060150   -0.0693026629   -0.0106047729    0.0069671759    0.0070977879
N    0.8956225165    0.5880989555    0.0712249569    0.0080007594   -0.0013647417   -0.0103831438
18
energy=-0.0118420959 Properties=species:S:1:pos:R:3:forces:R:3 pbc="T T T" Lattice="200.000 0.000 0.000 0.000 200.000 0.000 0.000 0.000 200.000"
C    1.4935809806   -3.3906245006   -2.1480639354   -0.0003548123   -0.0005111353   -0.0034792171
H    1.6331696338   -2.5775174317   -1.4127318573   -0.0025340795    0.0038581977    0.0103713167
H    2.5550899107   -3.8347300766   -2.2446213307    0.0003522412    0.0001588942   -0.0003764095
H    0.8747306523   -4.1319495513   -1.7797528255   -0.0000015427    0.0013580568    0.0006026666
C    0.9619561125   -2.9164606161   -3.3798981401    0.0015370056   -0.0025160817    0.0025669896
N    0.4915440030   -2.5945596862   -4.3572844314   -0.0014696427    0.0014362183   -0.0023520453
C    1.2563488400    0.5054463042    2.5232023189    0.0043148256   -0.0078938015   -0.0014974106
H    0.5601342846    1.2364329268    2.5652902499   -0.0104263383    0.0079452236   -0.0017648053
H    2.1501794551    0.8873439818    2.0868814352   -0.0008561774   -0.0004417156   -0.0007440773
H    1.4204201755    0.1803132178    3.5388009553   -0.0008993720    0.0001198134   -0.0005995813
C    1.0512219375   -0.5905195384    1.6812823135    0.0002468259    0.0060338653    0.0036355401
N    0.9367956033   -1.3941894600    0.8742689791    0.0029336289   -0.0051056970   -0.0082295876
C   -2.8975096403    4.3187371844    1.0859616629   -0.0001650648   -0.0008242957    0.0004386302
H   -3.7641451523    4.7074464926    1.6886618015    0.0002879636   -0.0003378430    0.0001506667
H   -3.2094344012    4.2307235841    0.1034796141    0.0004154903   -0.0004818248   -0.0001599226
H   -2.1726646643    5.2016776337    1.0831603425    0.0004226894   -0.0005718134    0.0001208419
C   -2.0131590061    3.3035584124    1.5381388191    0.0002643094   -0.0003363003    0.0003784664
N   -1.3052323080    2.5094677723    1.9627662871    0.0059325639   -0.0018902752    0.0009384527
18
energy=-0.0109377255 Properties=species:S:1:pos:R:3:forces:R:3 pbc="T T T" Lattice="200.000 0.000 0.000 0.000 200.000 0.000 0.000 0.000 200.000"
C   -1.0534067870   -1.3048590211   -0.2124357202    0.0046444411   -0.0058934831   -0.0045086868
H   -1.1501970904   -0.9401977495   -1.2923007957   -0.0011590534   -0.0006345483    0.0006340341
H   -1.1823604503   -0.4496104078    0.4596320007   -0.0066740701    0.0090986205    0.0097645363
H   -1.7503386834   -2.0092616548   -0.1031419555   -0.0007049965    0.0001208419    0.0004247463
C    0.3077502156   -1.8362859402   -0.0526366967   -0.0101944248    0.0031634856   -0.0023402183
N    1.3563092503   -2.1443769927    0.2225400383    0.0089638947    0.0008273811   -0.0033465481
C   -1.1935783459    1.8583806992    3.5945240512   -0.0009677633    0.0012654971    0.0018769054
H   -1.6132113549    2.5596103610    4.2613731925   -0.0001049010   -0.0000318817   -0.0004000637
H   -0.4109054845    2.1955345217    3.0239486052   -0.0007389351    0.0005635859   -0.0008309806
H   -0.6939519332    1.0341654234    4.1340620558   -0.0009266256    0.0001321547   -0.0002298566
C   -2.1484528070    1.3279870997    2.6314789924    0.0010793492   -0.0014938110   -0.0023751853
N   -2.6655519027    0.6533807805    1.8472602529    0.0101723133   -0.0053365821   -0.0049735423
C    2.4872861981   -0.6232003781   -2.5513102607    0.0012115039    0.0028261568   -0.0023062797
H    2.1830160069   -1.3873757045   -3.3466235558   -0.0006875130    0.0004417156    0.0006160364
H    2.1590039727   -0.9998249587   -1.6066639547   -0.0054995901   -0.0058513170    0.0088713350
H    3.5069492266   -0.2691573377   -2.5868878941   -0.0000133697    0.0009909032   -0.0009574789
C    1.7844263726    0.5957324569   -2.7397328214    0.0003306439   -0.0030400726    0.0000797042
N    1.0760436605    1.4949211541   -2.8559788815    0.0012680682    0.0028503252    0.0000030853
18
energy=-0.0103704497 Properties=species:S:1:pos:R:3:forces:R:3 pbc="T T T" Lattice="200.000 0.000 0.000 0.000 200.000 0.000 0.000 0.000 200.000"
C   -1.8637710685    1.5321944507   -4.1547405932   -0.0001470671    0.0006911126   -0.0004849101
H   -1.1656273362    1.7886600548   -5.0818624133    0.0002288282    0.0002308851    0.0002072309
H   -2.9174367474    1.6723998278   -4.3127452907   -0.0001069579    0.0003280728    0.0003918362
H   -1.6842828340    0.4254101572   -3.9023142385    0.0001820341    0.0004633128    0.0001959181
C   -1.3959158759    2.3356328203   -3.0775831332   -0.0010762639    0.0004797679   -0.0001727781
N   -1.1664710881    2.9572069242   -2.1379731038    0.0058029803   -0.0045498245    0.0062081862
C    0.1500755026   -3.2738343494    2.1094365125    0.0013703981   -0.0023325050    0.0017221250
H   -0.2067817930   -2.2623709402    2.2529851970    0.0008026985    0.0121957716   -0.0031254332
H   -0.1140996803   -3.7004691861    3.0560888861    0.0007168236   -0.0008798316    0.0004951945
H   -0.3269485451   -3.5906151931    1.2198622061    0.0004478862    0.0010454106   -0.0002972195
C    1.5735631034   -3.4478935329    2.1310213855   -0.0027217700    0.0010125005    0.0002041456
N    2.6805018052   -3.7361124434    2.2602315634    0.0006638589   -0.0023947257   -0.0004627986
C    0.5706054602    2.2652040407    0.3204547211    0.0031506300   -0.0029084321    0.0047025480
H    0.8793024926    2.9200640034    1.1427600488   -0.0007893287   -0.0009981023   -0.0000606780
H   -0.3000693376    2.5288873203   -0.3448404033   -0.0081272577    0.0020671671   -0.0099990209
H    1.3838868104    2.0338090502   -0.2912083434   -0.0020229441   -0.0000349670    0.0004478862
C   -0.0045115196    1.0443636692    1.0153881697    0.0036447961    0.0076253783   -0.0042778018
N   -0.3620080080    0.2575456609    1.7482064492   -0.0020203730   -0.0120430481    0.0043060839
18
energy=-0.0092848787 Properties=species:S:1:pos:R:3:forces:R:3 pbc="T T T" Lattice="200.000 0.000 0.000 0.000 200.000 0.000 0.000 0.000 200.000"
C   -0.2597515446    0.5098380912   -2.7704509376    0.0055669530    0.0021113901    0.0017262388
H    0.1949497183    0.5708480073   -3.7636667118    0.0001907759    0.0006396905   -0.0007291649
H   -1.3436832311    0.6617859731   -2.6132559056   -0.0046557540   -0.0036273126    0.0041800998
H   -0.1096016357   -0.6258915431   -2.4953559249   -0.0037142159   -0.0005404459    0.0018280545
C    0.1473269568    1.3667244561   -1.6970256484   -0.0015976836   -0.0031763411   -0.0022754265
N    0.3448378534    2.1681127767   -0.9039326295    0.0046171874    0.0038278587   -0.0002375699
C   -1.5317306184   -1.0377601130    0.5186422800    0.0002416837    0.0027181705   -0.0002175153
H   -1.5396344487    0.1578326920    0.6696601871   -0.0033830578   -0.0060276947    0.0007908714
H   -0.4271847181   -1.3874332178    0.3359760787    0.0017802320   -0.0014732422    0.0027418246
H   -2.0187569423   -1.4384700373    1.4885594586    0.0008638907   -0.0008829169    0.0011677951
C   -2.2479661040   -1.2203091679   -0.6818949076    0.0015976836   -0.0003337292    0.0054980474
N   -2.7660450686   -1.4211778791   -1.6842481041    0.0031511443    0.0045349121   -0.0075785842
C    2.5352369291    0.8056169122    1.5942781393    0.0031094924    0.0005872400    0.0011647098
H    3.4810874600    1.1904226469    2.0773044203   -0.0006957406   -0.0005363322    0.0010284413
H    1.6838452920    1.4600327697    1.6120476837    0.0012392718    0.0007569328   -0.0043477358
H    2.5733055104    0.3745865697    0.5976454257   -0.0038201454    0.0015822570   -0.0017972012
C    2.1361434260   -0.1903919339    2.5754541487    0.0011801364    0.0016249373   -0.0028559816
N    1.5735628152   -1.0166775807    3.1339206598   -0.0056739109   -0.0017828031   -0.0000869033
18
energy=-0.0084211348 Properties=species:S:1:pos:R:3:forces:R:3 pbc="T T T" Lattice="200.000 0.000 0.000 0.000 200.000 0.000 0.000 0.000 200.000"
C    0.0545444864   -0.3106463005    1.6418699234   -0.0019308986    0.0005486735    0.0021098474
H   -0.6654600399    0.2244576160    2.2773306349    0.0013287462   -0.0006402047   -0.0021052194
H    0.9635715017   -0.0173684698    2.0416109165   -0.0001085006   -0.0004293743   -0.0008669761
H   -0.3165621574   -1.3691439508    1.6537811277    0.0014963822    0.0001768919   -0.0016285369
C    0.0240379486    0.1529002221    0.2722757939    0.0033804867   -0.0047699109    0.0009929601
N    0.2996305673    0.6116648738   -0.7315083710   -0.0032771283    0.0112398354   -0.0036638223
C   -0.7927838791    3.5512896268   -1.6368013500   -0.0027150851    0.0106988753   -0.0020142024
H   -0.1821931511    3.9568357378   -2.4082183335   -0.0000349670    0.0011590534   -0.0001511809
H   -1.8345108664    3.3615116943   -2.1099748109   -0.0004021206   -0.0003486416    0.0004684550
H   -0.3385308735    2.5502385186   -1.3110481178    0.0055983204   -0.0200381511    0.0074382020
C   -0.7609479167    4.4246210037   -0.5499539001   -0.0003913219   -0.0029819657   -0.0034756175