
                                 *****************
                                 * O   R   C   A *
                                 *****************

           --- An Ab Initio, DFT and Semiempirical electronic structure package ---

                  #######################################################
                  #                        -***-                        #
                  #          Department of theory and spectroscopy      #
                  #               Directorship: Frank Neese             #
                  #        Max Planck Institute fuer Kohlenforschung    #
                  #                Kaiser Wilhelm Platz 1               #
                  #                 D-45470 Muelheim/Ruhr               #
                  #                      Germany                        #
                  #                                                     #
                  #                  All rights reserved                #
                  #                        -***-                        #
                  #######################################################


                         Program Version 4.2.0 -  RELEASE  -


 With contributions from (in alphabetic order):
   Daniel Aravena         : Magnetic Suceptibility
   Michael Atanasov       : Ab Initio Ligand Field Theory (pilot matlab implementation)
   Alexander A. Auer      : GIAO ZORA, VPT2
   Ute Becker             : Parallelization
   Giovanni Bistoni       : ED, misc. LED, open-shell LED, HFLED
   Martin Brehm           : Molecular dynamics
   Dmytro Bykov           : SCF Hessian
   Vijay G. Chilkuri      : MRCI spin determinant printing, contributions to CSF-ICE
   Dipayan Datta          : RHF DLPNO-CCSD density
   Achintya Kumar Dutta   : EOM-CC, STEOM-CC
   Dmitry Ganyushin       : Spin-Orbit,Spin-Spin,Magnetic field MRCI
   Miquel Garcia          : C-PCM Hessian, Gaussian charge scheme
   Yang Guo               : DLPNO-NEVPT2, CIM, IAO-localization
   Andreas Hansen         : Spin unrestricted coupled pair/coupled cluster methods
   Benjamin Helmich-Paris : CASSCF linear response (MC-RPA)
   Lee Huntington         : MR-EOM, pCC
   Robert Izsak           : Overlap fitted RIJCOSX, COSX-SCS-MP3, EOM
   Christian Kollmar      : KDIIS, OOCD, Brueckner-CCSD(T), CCSD density
   Simone Kossmann        : Meta GGA functionals, TD-DFT gradient, OOMP2, MP2 Hessian
   Martin Krupicka        : AUTO-CI
   Lucas Lang             : DCDCAS
   Dagmar Lenk            : GEPOL surface, SMD
   Dimitrios Liakos       : Extrapolation schemes; Compound Job, initial MDCI parallelization
   Dimitrios Manganas     : Further ROCIS development; embedding schemes
   Dimitrios Pantazis     : SARC Basis sets
   Taras Petrenko         : DFT Hessian,TD-DFT gradient, ASA, ECA, R-Raman, ABS, FL, XAS/XES, NRVS
   Peter Pinski           : DLPNO-MP2, DLPNO-MP2 Gradient
   Christoph Reimann      : Effective Core Potentials
   Marius Retegan         : Local ZFS, SOC
   Christoph Riplinger    : Optimizer, TS searches, QM/MM, DLPNO-CCSD(T), (RO)-DLPNO pert. Triples
   Tobias Risthaus        : Range-separated hybrids, TD-DFT gradient, RPA, STAB
   Michael Roemelt        : Original ROCIS implementation
   Masaaki Saitow         : Open-shell DLPNO-CCSD energy and density
   Barbara Sandhoefer     : DKH picture change effects
   Avijit Sen             : IP-ROCIS
   Kantharuban Sivalingam : CASSCF convergence, NEVPT2, FIC-MRCI
   Bernardo de Souza      : ESD, SOC TD-DFT
   Georgi Stoychev        : AutoAux, RI-MP2 NMR
   Willem Van den Heuvel  : Paramagnetic NMR
   Boris Wezisla          : Elementary symmetry handling
   Frank Wennmohs         : Technical directorship


 We gratefully acknowledge several colleagues who have allowed us to
 interface, adapt or use parts of their codes:
   Stefan Grimme, W. Hujo, H. Kruse,             : VdW corrections, initial TS optimization,
                  C. Bannwarth                     DFT functionals, gCP, sTDA/sTD-DF
   Ed Valeev, F. Pavosevic, A. Kumar             : LibInt (2-el integral package), F12 methods
   Garnet Chan, S. Sharma, J. Yang, R. Olivares  : DMRG
   Ulf Ekstrom                                   : XCFun DFT Library
   Mihaly Kallay                                 : mrcc  (arbitrary order and MRCC methods)
   Andreas Klamt, Michael Diedenhofen            : otool_cosmo (COSMO solvation model)
   Jiri Pittner, Ondrej Demel                    : Mk-CCSD
   Frank Weinhold                                : gennbo (NPA and NBO analysis)
   Christopher J. Cramer and Donald G. Truhlar   : smd solvation model
   Lars Goerigk                                  : TD-DFT with DH, B97 family of functionals
   V. Asgeirsson, H. Jonsson                     : NEB implementation
   FAccTs GmbH                                   : IRC, NEB, NEB-TS, Multilevel, MM, QM/MM, CI optimization
   S Lehtola, MJT Oliveira, MAL Marques          : LibXC Library


 Your calculation uses the libint2 library for the computation of 2-el integrals
 For citations please refer to: http://libint.valeyev.net

 Your ORCA version has been built with support for libXC version: 4.2.3
 For citations please refer to: https://tddft.org/programs/libxc/

 This ORCA versions uses:
   CBLAS   interface :  Fast vector & matrix operations
   LAPACKE interface :  Fast linear algebra routines
   SCALAPACK package :  Parallel linear algebra routines


----- Orbital basis set information -----
Your calculation utilizes the basis: def2-TZVP
   F. Weigend and R. Ahlrichs, Phys. Chem. Chem. Phys. 7, 3297 (2005).

================================================================================
                                        WARNINGS
                       Please study these warnings very carefully!
================================================================================


WARNING: The frozen-core approximation for MP2-gradient calculations is turned on by default.

INFO   : the flag for use of LIBINT has been found!

================================================================================
                                       INPUT FILE
================================================================================
NAME = orcacalc.inp
|  1> ! engrad MP2 def2-TZVP TightSCF FrozenCore 
|  2> %pal nprocs 24 end
|  3> 
|  4> %maxcore 8000
|  5> 
|  6> %scf    ConvForced true end 
|  7> *xyz 0 1 
|  8> O   -2.0782172887764947 0.09326023458783225 2.801955058437034
|  9> H   -1.1965038568607982 0.3971618234846834 2.7794076054365946
| 10> C   -3.0354815627910217 0.5876002753935105 1.8732814773710154
| 11> H   -3.9724466346945695 0.15328211200973094 2.1815124074375194
| 12> H   -2.833183386590176 0.22515151716887202 0.9005249583621178
| 13> H   -3.1954587207515326 1.6304969614693086 1.802312972667808
| 14> O   0.5154378618502846 -1.7570444443484756 -1.6972651655667523
| 15> H   0.26915660710250167 -1.5120506686737465 -0.8116849951093539
| 16> C   0.24214941658477246 -3.1448987908999846 -1.798154221795337
| 17> H   0.1009243117348704 -3.3308777575683948 -2.854356379897984
| 18> H   -0.6962215206677189 -3.3217693430524404 -1.2280131729973303
| 19> H   0.9924263546283161 -3.7446496497375317 -1.28092493132612
| 20> O   0.2603487203311081 1.9721105685128872 -0.4371726591624052
| 21> H   -0.12835833217087353 1.2526336494285963 -1.0849317172480613
| 22> C   1.5063715938244906 2.390038722670703 -0.9802194215856972
| 23> H   1.490463117267024 2.5793190555074395 -2.0804230273709163
| 24> H   2.324901761326132 1.7165076796256655 -0.7360616286341592
| 25> H   1.5853664105759262 3.3538317654204253 -0.46795908976230316
| 26> O   0.3592327570770357 0.7324420285105269 -3.124377430545969
| 27> H   0.704684242756796 -0.17377330793638937 -2.9099639962559207
| 28> C   -0.011221023544043621 0.6464755238008968 -4.490708602807641
| 29> H   0.7726049906317894 0.3025190720535847 -5.17807517076114
| 30> H   -0.3780652097467544 1.6472291073633851 -4.908944714802986
| 31> H   -0.8196893369538368 -0.11905235282295494 -4.777545079820133
| 32> O   0.6051327998407179 0.7905178090430639 2.226782383265095
| 33> H   0.2037433005479826 1.2895404985753662 1.4827073703420142
| 34> C   1.0266234583489564 1.629494898387766 3.2339666370774722
| 35> H   1.540197210862149 1.0194475811795995 3.9097455175075195
| 36> H   0.08368863579025042 2.0117550181075305 3.7533384338000877
| 37> H   1.5915950977883784 2.5008303220986345 2.9001502104915757
| 38> O   -0.3303282203885331 -1.8505276328780091 0.9753157803277221
| 39> H   -0.6576183559530608 -1.180297222664212 1.5841122743174607
| 40> C   1.0233964458007865 -2.1345069327173216 1.48408266454773
| 41> H   1.6393685533057238 -1.2721229644518526 1.4079951350170468
| 42> H   1.4203156054544517 -2.962245137492523 0.874065737621261
| 43> H   1.0331350969438824 -2.4838214111972117 2.576229876389803
| 44> *
| 45> 
| 46>                          ****END OF INPUT****
================================================================================

                     *******************************
                     * Energy+Gradient Calculation *
                     *******************************

---------------------------------
CARTESIAN COORDINATES (ANGSTROEM)
---------------------------------
  O     -2.078217    0.093260    2.801955
  H     -1.196504    0.397162    2.779408
  C     -3.035482    0.587600    1.873281
  H     -3.972447    0.153282    2.181512
  H     -2.833183    0.225152    0.900525
  H     -3.195459    1.630497    1.802313
  O      0.515438   -1.757044   -1.697265
  H      0.269157   -1.512051   -0.811685
  C      0.242149   -3.144899   -1.798154
  H      0.100924   -3.330878   -2.854356
  H     -0.696222   -3.321769   -1.228013
  H      0.992426   -3.744650   -1.280925
  O      0.260349    1.972111   -0.437173
  H     -0.128358    1.252634   -1.084932
  C      1.506372    2.390039   -0.980219
  H      1.490463    2.579319   -2.080423
  H      2.324902    1.716508   -0.736062
  H      1.585366    3.353832   -0.467959
  O      0.359233    0.732442   -3.124377
  H      0.704684   -0.173773   -2.909964
  C     -0.011221    0.646476   -4.490709
  H      0.772605    0.302519   -5.178075
  H     -0.378065    1.647229   -4.908945
  H     -0.819689   -0.119052   -4.777545
  O      0.605133    0.790518    2.226782
  H      0.203743    1.289540    1.482707
  C      1.026623    1.629495    3.233967
  H      1.540197    1.019448    3.909746
  H      0.083689    2.011755    3.753338
  H      1.591595    2.500830    2.900150
  O     -0.330328   -1.850528    0.975316
  H     -0.657618   -1.180297    1.584112
  C      1.023396   -2.134507    1.484083
  H      1.639369   -1.272123    1.407995
  H      1.420316   -2.962245    0.874066
  H      1.033135   -2.483821    2.576230

----------------------------
CARTESIAN COORDINATES (A.U.)
----------------------------
  NO LB      ZA    FRAG     MASS         X           Y           Z
   0 O     8.0000    0    15.999   -3.927262    0.176236    5.294928
   1 H     1.0000    0     1.008   -2.261065    0.750527    5.252319
   2 C     6.0000    0    12.011   -5.736229    1.110404    3.539989
   3 H     1.0000    0     1.008   -7.506836    0.289661    4.122461
   4 H     1.0000    0     1.008   -5.353941    0.425475    1.701746
   5 H     1.0000    0     1.008   -6.038542    3.081193    3.405878
   6 O     8.0000    0    15.999    0.974036   -3.320333   -3.207366
   7 H     1.0000    0     1.008    0.508632   -2.857362   -1.533862
   8 C     6.0000    0    12.011    0.457596   -5.942997   -3.398019
   9 H     1.0000    0     1.008    0.190719   -6.294447   -5.393952
  10 H     1.0000    0     1.008   -1.315668   -6.277234   -2.320609
  11 H     1.0000    0     1.008    1.875414   -7.076362   -2.420597
  12 O     8.0000    0    15.999    0.491988    3.726749   -0.826137
  13 H     1.0000    0     1.008   -0.242562    2.367135   -2.050224
  14 C     6.0000    0    12.011    2.846630    4.516519   -1.852346
  15 H     1.0000    0     1.008    2.816567    4.874207   -3.931430
  16 H     1.0000    0     1.008    4.393428    3.243729   -1.390955
  17 H     1.0000    0     1.008    2.995908    6.337824   -0.884315
  18 O     8.0000    0    15.999    0.678852    1.384115   -5.904218
  19 H     1.0000    0     1.008    1.331660   -0.328384   -5.499035
  20 C     6.0000    0    12.011   -0.021205    1.221662   -8.486209
  21 H     1.0000    0     1.008    1.460012    0.571678   -9.785144
  22 H     1.0000    0     1.008   -0.714440    3.112812   -9.276561
  23 H     1.0000    0     1.008   -1.548988   -0.224976   -9.028252
  24 O     8.0000    0    15.999    1.143535    1.493862    4.208009
  25 H     1.0000    0     1.008    0.385019    2.436878    2.801911
  26 C     6.0000    0    12.011    1.940037    3.079299    6.111311
  27 H     1.0000    0     1.008    2.910551    1.926477    7.388348
  28 H     1.0000    0     1.008    0.158149    3.801666    7.092782
  29 H     1.0000    0     1.008    3.007679    4.725884    5.480490
  30 O     8.0000    0    15.999   -0.624230   -3.496990    1.843080
  31 H     1.0000    0     1.008   -1.242719   -2.230439    2.993538
  32 C     6.0000    0    12.011    1.933939   -4.033634    2.804510
  33 H     1.0000    0     1.008    3.097958   -2.403964    2.660725
  34 H     1.0000    0     1.008    2.684008   -5.597832    1.651745
  35 H     1.0000    0     1.008    1.952342   -4.693742    4.868369

--------------------------------
INTERNAL COORDINATES (ANGSTROEM)
--------------------------------
 O      0   0   0     0.000000000000     0.00000000     0.00000000
 H      1   0   0     0.932889671607     0.00000000     0.00000000
 C      1   2   0     1.422378847712   120.46987272     0.00000000
 H      3   1   2     1.077748634544   104.96964228   185.44560024
 H      3   1   2     1.057614721771   110.65135816    70.42509404
 H      3   1   2     1.057479417084   119.23426704   304.64419061
 O      5   3   1     4.678768921773   142.44494607   343.19320973
 H      7   5   3     0.951277375357    35.77818103    10.07386734
 C      7   5   3     1.418099031529   108.43304218   101.29920896
 H      9   7   5     1.081709621416   105.24162986   118.61801479
 H      9   7   5     1.112152877811   106.36602171     0.44063562
 H      9   7   5     1.090936622978   111.82453886   246.98469566
 O      8   7   5     3.504242656461   110.86760767   290.73106025
 H     13   8   7     1.043231521328    41.31139650    50.58882198
 C     13   8   7     1.422018540486   104.43004091   311.14726551
 H     15  13   8     1.116480227415   114.43478626    87.41275393
 H     15  13   8     1.087772369990   113.05775723   320.86093506
 H     15  13   8     1.094325298020    98.24062895   201.81755247
 O     14  13   8     2.160482170784   131.92010913   250.86952315
 H     19  14  13     0.993245229424    95.41647193   114.10567380
 C     19  14  13     1.418269056210   149.88873954   244.72725464
 H     21  19  14     1.097798733802   115.82960850   176.52977256
 H     21  19  14     1.144990758627   112.49522790    54.53712123
 H     21  19  14     1.149751759390   117.66926547   291.74183078
 O      2   1   3     1.925102129843   163.34091174   297.58059040
 H     25   2   1     0.981725419691    86.49110382    59.81030663
 C     25   2   1     1.376937563139   101.59531941   171.25898682
 H     27  25   2     1.045271650691   105.52708013    96.15346533
 H     27  25   2     1.142364189719   106.48580753   341.67056743
 H     27  25   2     1.090803273117   114.92371202   222.86916476
 O      8   7   5     1.915024930674   154.71946664   105.40197604
 H     31   8   7     0.962788038307   124.98970692   195.31513683
 C     31   8   7     1.473790506505    93.93636686    86.21373532
 H     33  31   8     1.062505086150   110.57241757    63.55970581
 H     33  31   8     1.102186919756   106.52468317   302.64851271
 H     33  31   8     1.146691317895   113.28393543   185.06720253

---------------------------
INTERNAL COORDINATES (A.U.)
---------------------------
 O      0   0   0     0.000000000000     0.00000000     0.00000000
 H      1   0   0     1.762905992501     0.00000000     0.00000000
 C      1   2   0     2.687906480858   120.46987272     0.00000000
 H      3   1   2     2.036649760496   104.96964228   185.44560024
 H      3   1   2     1.998602179351   110.65135816    70.42509404
 H      3   1   2     1.998346490548   119.23426704   304.64419061
 O      5   3   1     8.841591906052   142.44494607   343.19320973
 H      7   5   3     1.797653716821    35.77818103    10.07386734
 C      7   5   3     2.679818800369   108.43304218   101.29920896
 H      9   7   5     2.044134940904   105.24162986   118.61801479
 H      9   7   5     2.101664358115   106.36602171     0.44063562
 H      9   7   5     2.061571446894   111.82453886   246.98469566
 O      8   7   5     6.622058927516   110.86760767   290.73106025
 H     13   8   7     1.971421869583    41.31139650    50.58882198
 C     13   8   7     2.687225598876   104.43004091   311.14726551
 H     15  13   8     2.109841863752   114.43478626    87.41275393
 H     15  13   8     2.055591875328   113.05775723   320.86093506
 H     15  13   8     2.067975114679    98.24062895   201.81755247
 O     14  13   8     4.082719620002   131.92010913   250.86952315
 H     19  14  13     1.876961467436    95.41647193   114.10567380
 C     19  14  13     2.680140100452   149.88873954   244.72725464
 H     21  19  14     2.074538957052   115.82960850   176.52977256
 H     21  19  14     2.163718959675   112.49522790    54.53712123
 H     21  19  14     2.172715947242   117.66926547   291.74183078
 O      2   1   3     3.637915805231   163.34091174   297.58059040
 H     25   2   1     1.855192181924    86.49110382    59.81030663
 C     25   2   1     2.602034897841   101.59531941   171.25898682
 H     27  25   2     1.975277155358   105.52708013    96.15346533
 H     27  25   2     2.158755463768   106.48580753   341.67056743
 H     27  25   2     2.061319452176   114.92371202   222.86916476
 O      8   7   5     3.618872658605   154.71946664   105.40197604
 H     31   8   7     1.819405717416   124.98970692   195.31513683
 C     31   8   7     2.785060436068    93.93636686    86.21373532
 H     33  31   8     2.007843628723   110.57241757    63.55970581
 H     33  31   8     2.082831426729   106.52468317   302.64851271
 H     33  31   8     2.166932550967   113.28393543   185.06720253

---------------------
BASIS SET INFORMATION
---------------------
There are 3 groups of distinct atoms

 Group   1 Type O   : 11s6p2d1f contracted to 5s3p2d1f pattern {62111/411/11/1}
 Group   2 Type H   : 5s1p contracted to 3s1p pattern {311/1}
 Group   3 Type C   : 11s6p2d1f contracted to 5s3p2d1f pattern {62111/411/11/1}

Atom   0O    basis set group =>   1
Atom   1H    basis set group =>   2
Atom   2C    basis set group =>   3
Atom   3H    basis set group =>   2
Atom   4H    basis set group =>   2
Atom   5H    basis set group =>   2
Atom   6O    basis set group =>   1
Atom   7H    basis set group =>   2
Atom   8C    basis set group =>   3
Atom   9H    basis set group =>   2
Atom  10H    basis set group =>   2
Atom  11H    basis set group =>   2
Atom  12O    basis set group =>   1
Atom  13H    basis set group =>   2
Atom  14C    basis set group =>   3
Atom  15H    basis set group =>   2
Atom  16H    basis set group =>   2
Atom  17H    basis set group =>   2
Atom  18O    basis set group =>   1
Atom  19H    basis set group =>   2
Atom  20C    basis set group =>   3
Atom  21H    basis set group =>   2
Atom  22H    basis set group =>   2
Atom  23H    basis set group =>   2
Atom  24O    basis set group =>   1
Atom  25H    basis set group =>   2
Atom  26C    basis set group =>   3
Atom  27H    basis set group =>   2
Atom  28H    basis set group =>   2
Atom  29H    basis set group =>   2
Atom  30O    basis set group =>   1
Atom  31H    basis set group =>   2
Atom  32C    basis set group =>   3
Atom  33H    basis set group =>   2
Atom  34H    basis set group =>   2
Atom  35H    basis set group =>   2

Checking for AutoStart:
The File: orcacalc.gbw exists
Trying to determine its content:
     ... Fine, the file contains calculation information
     ... Fine, the calculation information was read
     ... Fine, the file contains a basis set
     ... Fine, the basis set was read
     ... Fine, the file contains a geometry
     ... Fine, the geometry was read
     ... Fine, the file contains a set of orbitals
     ... Fine, the orbitals can be read
     => possible old guess file was deleted
     => GBW file was renamed to GES file
     => GES file is set as startup file
     => Guess is set to MORead
     ... now leaving AutoStart



           ************************************************************
           *        Program running with 24 parallel MPI-processes    *
           *              working on a common directory               *
           ************************************************************
------------------------------------------------------------------------------
                           ORCA GTO INTEGRAL CALCULATION
------------------------------------------------------------------------------

                         BASIS SET STATISTICS AND STARTUP INFO

 # of primitive gaussian shells          ...  384
 # of primitive gaussian functions       ...  744
 # of contracted shells                  ...  228
 # of contracted basis functions         ...  516
 Highest angular momentum                ...    3
 Maximum contraction depth               ...    6
 Integral package used                   ... LIBINT
 Integral threshhold            Thresh   ...  2.500e-11
 Primitive cut-off              TCut     ...  2.500e-12


------------------------------ INTEGRAL EVALUATION ----------------------------


 * One electron integrals 
 Pre-screening matrix                    ... done
 Shell pair data                         ... done (   0.005 sec)



           ************************************************************
           *        Program running with 24 parallel MPI-processes    *
           *              working on a common directory               *
           ************************************************************
-------------------------------------------------------------------------------
                                 ORCA SCF
-------------------------------------------------------------------------------

------------
SCF SETTINGS
------------
Hamiltonian:
 Ab initio Hamiltonian  Method          .... Hartree-Fock(GTOs)


General Settings:
 Integral files         IntName         .... orcacalc
 Hartree-Fock type      HFTyp           .... RHF
 Total Charge           Charge          ....    0
 Multiplicity           Mult            ....    1
 Number of Electrons    NEL             ....  108
 Basis Dimension        Dim             ....  516
 Nuclear Repulsion      ENuc            ....    826.7405293956 Eh

Convergence Acceleration:
 DIIS                   CNVDIIS         .... on
   Start iteration      DIISMaxIt       ....    12
   Startup error        DIISStart       ....  0.200000
   # of expansion vecs  DIISMaxEq       ....     5
   Bias factor          DIISBfac        ....   1.050
   Max. coefficient     DIISMaxC        ....  10.000
 Newton-Raphson         CNVNR           .... off
 SOSCF                  CNVSOSCF        .... on
   Start iteration      SOSCFMaxIt      ....   150
   Startup grad/error   SOSCFStart      ....  0.003300
 Level Shifting         CNVShift        .... on
   Level shift para.    LevelShift      ....    0.2500
   Turn off err/grad.   ShiftErr        ....    0.0010
 Zerner damping         CNVZerner       .... off
 Static damping         CNVDamp         .... on
   Fraction old density DampFac         ....    0.7000
   Max. Damping (<1)    DampMax         ....    0.9800
   Min. Damping (>=0)   DampMin         ....    0.0000
   Turn off err/grad.   DampErr         ....    0.1000
 Fernandez-Rico         CNVRico         .... off

SCF Procedure:
 Maximum # iterations   MaxIter         ....   125
 SCF integral mode      SCFMode         .... Direct
   Integral package                     .... LIBINT
 Reset frequency        DirectResetFreq ....    20
 Integral Threshold     Thresh          ....  2.500e-11 Eh
 Primitive CutOff       TCut            ....  2.500e-12 Eh

Convergence Tolerance:
 Convergence Check Mode ConvCheckMode   .... Total+1el-Energy
 Convergence forced     ConvForced      .... 1
 Energy Change          TolE            ....  1.000e-08 Eh
 1-El. energy change                    ....  1.000e-05 Eh
 Orbital Gradient       TolG            ....  1.000e-05
 Orbital Rotation angle TolX            ....  1.000e-05
 DIIS Error             TolErr          ....  5.000e-07


Diagonalization of the overlap matrix:
Smallest eigenvalue                        ... 1.043e-03
Time for diagonalization                   ...    0.078 sec
Threshold for overlap eigenvalues          ... 1.000e-08
Number of eigenvalues below threshold      ... 0
Time for construction of square roots      ...    0.056 sec
Total time needed                          ...    0.135 sec

---------------------
INITIAL GUESS: MOREAD
---------------------
Guess MOs are being read from file: orcacalc.ges
Input geometry compatible with but different from current geometry
Input basis set matches current basis set (good)
MOs were renormalized
MOs were reorthogonalized (Cholesky)
                      ------------------
                      INITIAL GUESS DONE (   0.1 sec)
                      ------------------
--------------
SCF ITERATIONS
--------------
ITER       Energy         Delta-E        Max-DP      RMS-DP      [F,P]     Damp
               ***  Starting incremental Fock matrix formation  ***
  0   -690.5299003696   0.000000000000 0.00151536  0.00002967  0.0152634 0.7000
                      *** Initiating the SOSCF procedure ***
                      *** Re-Reading the Fockian *** 
                      *** Removing any level shift *** 
ITER      Energy       Delta-E        Grad      Rot      Max-DP    RMS-DP
  1   -690.53072097  -0.0008205991  0.000586  0.000586  0.003813  0.000085
               *** Restarting incremental Fock matrix formation ***
  2   -690.53299499  -0.0022740186  0.000727  0.001030  0.001473  0.000031
  3   -690.53318390  -0.0001889150  0.000307  0.000755  0.000986  0.000020
  4   -690.53322028  -0.0000363741  0.000121  0.000070  0.000219  0.000004
  5   -690.53322266  -0.0000023867  0.000021  0.000038  0.000069  0.000001
  6   -690.53322281  -0.0000001482  0.000009  0.000019  0.000023  0.000000
                  ***Gradient check signals convergence***
              ***Rediagonalizing the Fockian in SOSCF/NRSCF***

               *****************************************************
               *                     SUCCESS                       *
               *           SCF CONVERGED AFTER   7 CYCLES          *
               *****************************************************


----------------
TOTAL SCF ENERGY
----------------

Total Energy       :         -690.53322283 Eh          -18790.36428 eV

Components:
Nuclear Repulsion  :          826.74052940 Eh           22496.75352 eV
Electronic Energy  :        -1517.27375223 Eh          -41287.11779 eV
One Electron Energy:        -2591.19707304 Eh          -70510.05702 eV
Two Electron Energy:         1073.92332081 Eh           29222.93922 eV

Virial components:
Potential Energy   :        -1380.18562532 Eh          -37556.76021 eV
Kinetic Energy     :          689.65240249 Eh           18766.39594 eV
Virial Ratio       :            2.00127719


---------------
SCF CONVERGENCE
---------------

  Last Energy change         ...   -1.9574e-08  Tolerance :   1.0000e-08
  Last MAX-Density change    ...    9.9892e-06  Tolerance :   1.0000e-07
  Last RMS-Density change    ...    1.2941e-07  Tolerance :   5.0000e-09
  Last Orbital Gradient      ...    2.3832e-06  Tolerance :   1.0000e-05
  Last Orbital Rotation      ...    5.1239e-06  Tolerance :   1.0000e-05

             **** THE GBW FILE WAS UPDATED (orcacalc.gbw) ****
             **** DENSITY FILE WAS UPDATED (orcacalc.scfp) ****
             **** ENERGY FILE WAS UPDATED (orcacalc.en.tmp) ****
             **** THE GBW FILE WAS UPDATED (orcacalc.gbw) ****
             **** DENSITY FILE WAS UPDATED (orcacalc.scfp) ****
----------------
ORBITAL ENERGIES
----------------

  NO   OCC          E(Eh)            E(eV) 
   0   2.0000     -20.563084      -559.5500 
   1   2.0000     -20.560182      -559.4710 
   2   2.0000     -20.559209      -559.4445 
   3   2.0000     -20.558756      -559.4322 
   4   2.0000     -20.544703      -559.0498 
   5   2.0000     -20.538265      -558.8746 
   6   2.0000     -11.281529      -306.9860 
   7   2.0000     -11.274117      -306.7843 
   8   2.0000     -11.273387      -306.7645 
   9   2.0000     -11.265155      -306.5405 
  10   2.0000     -11.260598      -306.4164 
  11   2.0000     -11.256414      -306.3026 
  12   2.0000      -1.383095       -37.6359 
  13   2.0000      -1.362109       -37.0649 
  14   2.0000      -1.352743       -36.8100 
  15   2.0000      -1.347873       -36.6775 
  16   2.0000      -1.341540       -36.5052 
  17   2.0000      -1.337499       -36.3952 
  18   2.0000      -0.939163       -25.5559 
  19   2.0000      -0.933450       -25.4005 
  20   2.0000      -0.919905       -25.0319 
  21   2.0000      -0.917679       -24.9713 
  22   2.0000      -0.909738       -24.7552 
  23   2.0000      -0.905765       -24.6471 
  24   2.0000      -0.716553       -19.4984 
  25   2.0000      -0.712098       -19.3772 
  26   2.0000      -0.704398       -19.1676 
  27   2.0000      -0.689341       -18.7579 
  28   2.0000      -0.677423       -18.4336 
  29   2.0000      -0.672324       -18.2949 
  30   2.0000      -0.630495       -17.1566 
  31   2.0000      -0.621333       -16.9073 
  32   2.0000      -0.618783       -16.8379 
  33   2.0000      -0.617454       -16.8018 
  34   2.0000      -0.614174       -16.7125 
  35   2.0000      -0.605170       -16.4675 
  36   2.0000      -0.600275       -16.3343 
  37   2.0000      -0.590245       -16.0614 
  38   2.0000      -0.588856       -16.0236 
  39   2.0000      -0.585808       -15.9407 
  40   2.0000      -0.575301       -15.6547 
  41   2.0000      -0.573365       -15.6020 
  42   2.0000      -0.517699       -14.0873 
  43   2.0000      -0.515081       -14.0161 
  44   2.0000      -0.511437       -13.9169 
  45   2.0000      -0.492775       -13.4091 
  46   2.0000      -0.491706       -13.3800 
  47   2.0000      -0.489697       -13.3253 
  48   2.0000      -0.456828       -12.4309 
  49   2.0000      -0.452418       -12.3109 
  50   2.0000      -0.448026       -12.1914 
  51   2.0000      -0.444314       -12.0904 
  52   2.0000      -0.440429       -11.9847 
  53   2.0000      -0.435455       -11.8493 
  54   0.0000       0.123843         3.3699 
  55   0.0000       0.139936         3.8079 
  56   0.0000       0.147996         4.0272 
  57   0.0000       0.160778         4.3750 
  58   0.0000       0.164627         4.4797 
  59   0.0000       0.180530         4.9125 
  60   0.0000       0.190548         5.1851 
  61   0.0000       0.197904         5.3852 
  62   0.0000       0.203434         5.5357 
  63   0.0000       0.207295         5.6408 
  64   0.0000       0.210684         5.7330 
  65   0.0000       0.213024         5.7967 
  66   0.0000       0.221158         6.0180 
  67   0.0000       0.227618         6.1938 
  68   0.0000       0.232475         6.3260 
  69   0.0000       0.234912         6.3923 
  70   0.0000       0.238786         6.4977 
  71   0.0000       0.246752         6.7145 
  72   0.0000       0.252247         6.8640 
  73   0.0000       0.256238         6.9726 
  74   0.0000       0.273050         7.4301 
  75   0.0000       0.275421         7.4946 
  76   0.0000       0.279510         7.6059 
  77   0.0000       0.287965         7.8359 
  78   0.0000       0.296936         8.0800 
  79   0.0000       0.303099         8.2477 
  80   0.0000       0.307076         8.3560 
  81   0.0000       0.317091         8.6285 
  82   0.0000       0.332455         9.0466 
  83   0.0000       0.338144         9.2014 
  84   0.0000       0.343608         9.3500 
  85   0.0000       0.351789         9.5727 
  86   0.0000       0.359761         9.7896 
  87   0.0000       0.372843        10.1456 
  88   0.0000       0.374185        10.1821 
  89   0.0000       0.386033        10.5045 
  90   0.0000       0.394632        10.7385 
  91   0.0000       0.406644        11.0653 
  92   0.0000       0.415688        11.3114 
  93   0.0000       0.423335        11.5195 
  94   0.0000       0.431289        11.7360 
  95   0.0000       0.437172        11.8961 
  96   0.0000       0.463794        12.6205 
  97   0.0000       0.475944        12.9511 
  98   0.0000       0.484025        13.1710 
  99   0.0000       0.492166        13.3925 
 100   0.0000       0.506466        13.7816 
 101   0.0000       0.518950        14.1214 
 102   0.0000       0.529272        14.4022 
 103   0.0000       0.540195        14.6994 
 104   0.0000       0.546205        14.8630 
 105   0.0000       0.550749        14.9866 
 106   0.0000       0.559902        15.2357 
 107   0.0000       0.566545        15.4165 
 108   0.0000       0.579316        15.7640 
 109   0.0000       0.589098        16.0302 
 110   0.0000       0.592038        16.1102 
 111   0.0000       0.595131        16.1943 
 112   0.0000       0.613045        16.6818 
 113   0.0000       0.618072        16.8186 
 114   0.0000       0.627253        17.0684 
 115   0.0000       0.630897        17.1676 
 116   0.0000       0.635620        17.2961 
 117   0.0000       0.640083        17.4176 
 118   0.0000       0.646858        17.6019 
 119   0.0000       0.648946        17.6587 
 120   0.0000       0.654196        17.8016 
 121   0.0000       0.663489        18.0545 
 122   0.0000       0.664436        18.0802 
 123   0.0000       0.670541        18.2464 
 124   0.0000       0.679423        18.4880 
 125   0.0000       0.680655        18.5216 
 126   0.0000       0.687508        18.7080 
 127   0.0000       0.693140        18.8613 
 128   0.0000       0.702349        19.1119 
 129   0.0000       0.713750        19.4221 
 130   0.0000       0.724986        19.7279 
 131   0.0000       0.729422        19.8486 
 132   0.0000       0.736090        20.0300 
 133   0.0000       0.744110        20.2483 
 134   0.0000       0.754651        20.5351 
 135   0.0000       0.760547        20.6955 
 136   0.0000       0.767917        20.8961 
 137   0.0000       0.786285        21.3959 
 138   0.0000       0.801071        21.7983 
 139   0.0000       0.813531        22.1373 
 140   0.0000       0.817259        22.2388 
 141   0.0000       0.832640        22.6573 
 142   0.0000       0.843184        22.9442 
 143   0.0000       0.848027        23.0760 
 144   0.0000       0.863054        23.4849 
 145   0.0000       0.875064        23.8117 
 146   0.0000       0.884069        24.0567 
 147   0.0000       0.886476        24.1222 
 148   0.0000       0.899633        24.4803 
 149   0.0000       0.909428        24.7468 
 150   0.0000       0.920546        25.0493 
 151   0.0000       0.935273        25.4501 
 152   0.0000       0.944288        25.6954 
 153   0.0000       0.946863        25.7655 
 154   0.0000       0.951954        25.9040 
 155   0.0000       0.964355        26.2414 
 156   0.0000       0.970805        26.4170 
 157   0.0000       0.994884        27.0722 
 158   0.0000       1.012290        27.5458 
 159   0.0000       1.021201        27.7883 
 160   0.0000       1.025912        27.9165 
 161   0.0000       1.051347        28.6086 
 162   0.0000       1.068011        29.0620 
 163   0.0000       1.075898        29.2767 
 164   0.0000       1.084891        29.5214 
 165   0.0000       1.090101        29.6632 
 166   0.0000       1.101743        29.9800 
 167   0.0000       1.107314        30.1315 
 168   0.0000       1.129397        30.7325 
 169   0.0000       1.135961        30.9111 
 170   0.0000       1.141048        31.0495 
 171   0.0000       1.157009        31.4838 
 172   0.0000       1.167925        31.7809 
 173   0.0000       1.179574        32.0978 
 174   0.0000       1.185034        32.2464 
 175   0.0000       1.193427        32.4748 
 176   0.0000       1.205433        32.8015 
 177   0.0000       1.216938        33.1146 
 178   0.0000       1.238914        33.7126 
 179   0.0000       1.246534        33.9199 
 180   0.0000       1.252963        34.0948 
 181   0.0000       1.266522        34.4638 
 182   0.0000       1.279810        34.8254 
 183   0.0000       1.295196        35.2441 
 184   0.0000       1.301598        35.4183 
 185   0.0000       1.326460        36.0948 
 186   0.0000       1.539224        41.8844 
 187   0.0000       1.559307        42.4309 
 188   0.0000       1.582895        43.0728 
 189   0.0000       1.594858        43.3983 
 190   0.0000       1.598242        43.4904 
 191   0.0000       1.631161        44.3861 
 192   0.0000       1.654071        45.0096 
 193   0.0000       1.662018        45.2258 
 194   0.0000       1.685683        45.8698 
 195   0.0000       1.694331        46.1051 
 196   0.0000       1.699790        46.2536 
 197   0.0000       1.710629        46.5486 
 198   0.0000       1.719367        46.7863 
 199   0.0000       1.727554        47.0091 
 200   0.0000       1.741740        47.3952 
 201   0.0000       1.742956        47.4282 
 202   0.0000       1.746810        47.5331 
 203   0.0000       1.756481        47.7963 
 204   0.0000       1.765064        48.0298 
 205   0.0000       1.767371        48.0926 
 206   0.0000       1.778045        48.3831 
 207   0.0000       1.786637        48.6169 
 208   0.0000       1.796363        48.8815 
 209   0.0000       1.798695        48.9450 
 210   0.0000       1.808153        49.2023 
 211   0.0000       1.809736        49.2454 
 212   0.0000       1.817939        49.4686 
 213   0.0000       1.822854        49.6024 
 214   0.0000       1.830872        49.8206 
 215   0.0000       1.836836        49.9829 
 216   0.0000       1.840258        50.0760 
 217   0.0000       1.843194        50.1559 
 218   0.0000       1.845459        50.2175 
 219   0.0000       1.852584        50.4114 
 220   0.0000       1.857591        50.5476 
 221   0.0000       1.865045        50.7504 
 222   0.0000       1.873466        50.9796 
 223   0.0000       1.877095        51.0783 
 224   0.0000       1.882621        51.2287 
 225   0.0000       1.885537        51.3081 
 226   0.0000       1.899343        51.6838 
 227   0.0000       1.901258        51.7358 
 228   0.0000       1.917893        52.1885 
 229   0.0000       1.934651        52.6445 
 230   0.0000       1.946504        52.9671 
 231   0.0000       1.959915        53.3320 
 232   0.0000       1.977361        53.8067 
 233   0.0000       1.999710        54.4149 
 234   0.0000       2.028526        55.1990 
 235   0.0000       2.046288        55.6823 
 236   0.0000       2.061048        56.0840 
 237   0.0000       2.083677        56.6997 
 238   0.0000       2.095649        57.0255 
 239   0.0000       2.141309        58.2680 
 240   0.0000       2.153191        58.5913 
 241   0.0000       2.168891        59.0185 
 242   0.0000       2.172274        59.1106 
 243   0.0000       2.180017        59.3213 
 244   0.0000       2.196528        59.7706 
 245   0.0000       2.199218        59.8438 
 246   0.0000       2.220269        60.4166 
 247   0.0000       2.222429        60.4754 
 248   0.0000       2.237322        60.8806 
 249   0.0000       2.244664        61.0804 
 250   0.0000       2.248193        61.1764 
 251   0.0000       2.259997        61.4976 
 252   0.0000       2.263142        61.5832 
 253   0.0000       2.268363        61.7253 
 254   0.0000       2.280232        62.0483 
 255   0.0000       2.286497        62.2187 
 256   0.0000       2.295506        62.4639 
 257   0.0000       2.302339        62.6498 
 258   0.0000       2.314852        62.9903 
 259   0.0000       2.323229        63.2183 
 260   0.0000       2.336272        63.5732 
 261   0.0000       2.344562        63.7988 
 262   0.0000       2.355851        64.1060 
 263   0.0000       2.366277        64.3897 
 264   0.0000       2.374009        64.6001 
 265   0.0000       2.377321        64.6902 
 266   0.0000       2.402106        65.3646 
 267   0.0000       2.418343        65.8064 
 268   0.0000       2.431648        66.1685 
 269   0.0000       2.434315        66.2411 
 270   0.0000       2.462766        67.0153 
 271   0.0000       2.492619        67.8276 
 272   0.0000       2.510475        68.3135 
 273   0.0000       2.512636        68.3723 
 274   0.0000       2.536737        69.0281 
 275   0.0000       2.544450        69.2380 
 276   0.0000       2.549986        69.3887 
 277   0.0000       2.553418        69.4820 
 278   0.0000       2.567724        69.8713 
 279   0.0000       2.576061        70.0982 
 280   0.0000       2.590584        70.4934 
 281   0.0000       2.599619        70.7392 
 282   0.0000       2.600511        70.7635 
 283   0.0000       2.607642        70.9575 
 284   0.0000       2.612289        71.0840 
 285   0.0000       2.624283        71.4104 
 286   0.0000       2.638591        71.7997 
 287   0.0000       2.641579        71.8810 
 288   0.0000       2.648712        72.0751 
 289   0.0000       2.651004        72.1375 
 290   0.0000       2.662359        72.4465 
 291   0.0000       2.665982        72.5451 
 292   0.0000       2.670435        72.6662 
 293   0.0000       2.684933        73.0607 
 294   0.0000       2.691530        73.2402 
 295   0.0000       2.692873        73.2768 
 296   0.0000       2.708993        73.7155 
 297   0.0000       2.714928        73.8769 
 298   0.0000       2.739160        74.5363 
 299   0.0000       2.753908        74.9376 
 300   0.0000       2.758912        75.0738 
 301   0.0000       2.764807        75.2342 
 302   0.0000       2.779752        75.6409 
 303   0.0000       2.784658        75.7744 
 304   0.0000       2.792325        75.9830 
 305   0.0000       2.801637        76.2364 
 306   0.0000       2.817237        76.6609 
 307   0.0000       2.827841        76.9495 
 308   0.0000       2.829561        76.9963 
 309   0.0000       2.839953        77.2791 
 310   0.0000       2.850621        77.5693 
 311   0.0000       2.857278        77.7505 
 312   0.0000       2.867053        78.0165 
 313   0.0000       2.870702        78.1158 
 314   0.0000       2.884001        78.4777 
 315   0.0000       2.890525        78.6552 
 316   0.0000       2.898518        78.8727 
 317   0.0000       2.914451        79.3062 
 318   0.0000       2.921534        79.4990 
 319   0.0000       2.970084        80.8201 
 320   0.0000       2.975236        80.9603 
 321   0.0000       2.993016        81.4441 
 322   0.0000       3.012523        81.9749 
 323   0.0000       3.021715        82.2250 
 324   0.0000       3.040320        82.7313 
 325   0.0000       3.063989        83.3754 
 326   0.0000       3.073484        83.6338 
 327   0.0000       3.082548        83.8804 
 328   0.0000       3.101540        84.3972 
 329   0.0000       3.141639        85.4883 
 330   0.0000       3.159558        85.9759 
 331   0.0000       3.167123        86.1818 
 332   0.0000       3.168404        86.2166 
 333   0.0000       3.183454        86.6262 
 334   0.0000       3.202472        87.1437 
 335   0.0000       3.203702        87.1772 
 336   0.0000       3.230781        87.9140 
 337   0.0000       3.238063        88.1122 
 338   0.0000       3.241068        88.1939 
 339   0.0000       3.259426        88.6935 
 340   0.0000       3.279780        89.2473 
 341   0.0000       3.303568        89.8946 
 342   0.0000       3.315934        90.2312 
 343   0.0000       3.328939        90.5850 
 344   0.0000       3.349184        91.1359 
 345   0.0000       3.365656        91.5841 
 346   0.0000       3.372701        91.7758 
 347   0.0000       3.387437        92.1768 
 348   0.0000       3.394721        92.3750 
 349   0.0000       3.406234        92.6883 
 350   0.0000       3.409805        92.7855 
 351   0.0000       3.424062        93.1735 
 352   0.0000       3.427686        93.2721 
 353   0.0000       3.435018        93.4716 
 354   0.0000       3.474819        94.5546 
 355   0.0000       3.485905        94.8563 
 356   0.0000       3.487684        94.9047 
 357   0.0000       3.500390        95.2504 
 358   0.0000       3.511622        95.5561 
 359   0.0000       3.520257        95.7911 
 360   0.0000       3.525227        95.9263 
 361   0.0000       3.554771        96.7302 
 362   0.0000       3.568241        97.0968 
 363   0.0000       3.580787        97.4382 
 364   0.0000       3.609735        98.2259 
 365   0.0000       3.615844        98.3921 
 366   0.0000       3.628560        98.7382 
 367   0.0000       3.636113        98.9437 
 368   0.0000       3.642048        99.1052 
 369   0.0000       3.652124        99.3793 
 370   0.0000       3.664265        99.7097 
 371   0.0000       3.672714        99.9396 
 372   0.0000       3.678942       100.1091 
 373   0.0000       3.696617       100.5901 
 374   0.0000       3.697423       100.6120 
 375   0.0000       3.703941       100.7894 
 376   0.0000       3.735147       101.6385 
 377   0.0000       3.741715       101.8172 
 378   0.0000       3.769805       102.5816 
 379   0.0000       3.777218       102.7833 
 380   0.0000       3.779112       102.8349 
 381   0.0000       3.782988       102.9403 
 382   0.0000       3.797481       103.3347 
 383   0.0000       3.810444       103.6874 
 384   0.0000       3.838353       104.4469 
 385   0.0000       3.853060       104.8471 
 386   0.0000       3.869403       105.2918 
 387   0.0000       3.888134       105.8015 
 388   0.0000       3.893563       105.9492 
 389   0.0000       3.897961       106.0689 
 390   0.0000       3.902813       106.2009 
 391   0.0000       3.909770       106.3903 
 392   0.0000       3.915056       106.5341 
 393   0.0000       3.917851       106.6102 
 394   0.0000       3.921537       106.7104 
 395   0.0000       3.922791       106.7446 
 396   0.0000       3.940293       107.2208 
 397   0.0000       3.950059       107.4866 
 398   0.0000       3.955101       107.6238 
 399   0.0000       3.971522       108.0706 
 400   0.0000       3.979916       108.2990 
 401   0.0000       4.021130       109.4205 
 402   0.0000       4.231040       115.1325 
 403   0.0000       4.307591       117.2155 
 404   0.0000       4.311904       117.3329 
 405   0.0000       4.330165       117.8298 
 406   0.0000       4.380633       119.2031 
 407   0.0000       4.413988       120.1107 
 408   0.0000       4.442299       120.8811 
 409   0.0000       4.498531       122.4112 
 410   0.0000       4.506509       122.6283 
 411   0.0000       4.516615       122.9033 
 412   0.0000       4.527401       123.1968 
 413   0.0000       4.533082       123.3514 
 414   0.0000       4.567087       124.2768 
 415   0.0000       4.570125       124.3594 
 416   0.0000       4.585772       124.7852 
 417   0.0000       4.593025       124.9826 
 418   0.0000       4.597160       125.0951 
 419   0.0000       4.608495       125.4035 
 420   0.0000       4.651537       126.5748 
 421   0.0000       4.761700       129.5725 
 422   0.0000       4.780573       130.0860 
 423   0.0000       4.788409       130.2992 
 424   0.0000       4.804237       130.7299 
 425   0.0000       4.820015       131.1593 
 426   0.0000       4.889803       133.0583 
 427   0.0000       4.915874       133.7677 
 428   0.0000       4.922503       133.9481 
 429   0.0000       4.946621       134.6044 
 430   0.0000       4.956547       134.8745 
 431   0.0000       4.959915       134.9661 
 432   0.0000       5.671620       154.3326 
 433   0.0000       5.684021       154.6701 
 434   0.0000       5.688636       154.7957 
 435   0.0000       5.708334       155.3317 
 436   0.0000       5.712756       155.4520 
 437   0.0000       5.718145       155.5986 
 438   0.0000       5.725131       155.7887 
 439   0.0000       5.769113       156.9855 
 440   0.0000       5.775536       157.1603 
 441   0.0000       5.791591       157.5972 
 442   0.0000       5.798420       157.7830 
 443   0.0000       5.821522       158.4117 
 444   0.0000       5.860383       159.4691 
 445   0.0000       5.884365       160.1217 
 446   0.0000       5.898727       160.5125 
 447   0.0000       5.930512       161.3774 
 448   0.0000       5.934297       161.4804 
 449   0.0000       5.977747       162.6628 
 450   0.0000       6.075983       165.3359 
 451   0.0000       6.091707       165.7638 
 452   0.0000       6.132165       166.8647 
 453   0.0000       6.156243       167.5199 
 454   0.0000       6.173189       167.9810 
 455   0.0000       6.179337       168.1483 
 456   0.0000       6.187049       168.3582 
 457   0.0000       6.192917       168.5178 
 458   0.0000       6.210205       168.9883 
 459   0.0000       6.239650       169.7895 
 460   0.0000       6.247029       169.9903 
 461   0.0000       6.275534       170.7660 
 462   0.0000       6.305116       171.5709 
 463   0.0000       6.319571       171.9643 
 464   0.0000       6.364912       173.1980 
 465   0.0000       6.384841       173.7404 
 466   0.0000       6.391361       173.9178 
 467   0.0000       6.405077       174.2910 
 468   0.0000       6.552852       178.3122 
 469   0.0000       6.650545       180.9705 
 470   0.0000       6.739384       183.3880 
 471   0.0000       6.742811       183.4812 
 472   0.0000       6.800119       185.0406 
 473   0.0000       6.935376       188.7212 
 474   0.0000       6.938871       188.8163 
 475   0.0000       6.946396       189.0211 
 476   0.0000       6.964690       189.5189 
 477   0.0000       6.990294       190.2156 
 478   0.0000       6.995768       190.3645 
 479   0.0000       7.053328       191.9308 
 480   0.0000       7.138859       194.2582 
 481   0.0000       7.171109       195.1358 
 482   0.0000       7.188400       195.6063 
 483   0.0000       7.208704       196.1588 
 484   0.0000       7.211005       196.2214 
 485   0.0000       7.219250       196.4458 
 486   0.0000       7.226006       196.6296 
 487   0.0000       7.235845       196.8973 
 488   0.0000       7.242401       197.0757 
 489   0.0000       7.258084       197.5025 
 490   0.0000       7.277306       198.0256 
 491   0.0000       7.285496       198.2484 
 492   0.0000       7.468387       203.2252 
 493   0.0000       7.487690       203.7504 
 494   0.0000       7.498322       204.0397 
 495   0.0000       7.525976       204.7922 
 496   0.0000       7.538752       205.1399 
 497   0.0000       7.556461       205.6218 
 498   0.0000       7.611325       207.1147 
 499   0.0000       7.668943       208.6825 
 500   0.0000       7.675599       208.8637 
 501   0.0000       7.686396       209.1575 
 502   0.0000       7.742391       210.6812 
 503   0.0000       7.775440       211.5805 
 504   0.0000      23.261732       632.9839 
 505   0.0000      23.287619       633.6883 
 506   0.0000      23.379846       636.1979 
 507   0.0000      23.397156       636.6690 
 508   0.0000      23.523265       640.1006 
 509   0.0000      23.550912       640.8529 
 510   0.0000      45.232293      1230.8333 
 511   0.0000      45.271861      1231.9100 
 512   0.0000      45.301285      1232.7106 
 513   0.0000      45.331136      1233.5229 
 514   0.0000      45.359736      1234.3012 
 515   0.0000      45.420556      1235.9562 

                    ********************************
                    * MULLIKEN POPULATION ANALYSIS *
                    ********************************

-----------------------
MULLIKEN ATOMIC CHARGES
-----------------------
   0 O :   -0.586502
   1 H :    0.350359
   2 C :   -0.059807
   3 H :    0.108585
   4 H :    0.093440
   5 H :    0.100017
   6 O :   -0.616441
   7 H :    0.370896
   8 C :   -0.075145
   9 H :    0.108894
  10 H :    0.122439
  11 H :    0.085084
  12 O :   -0.617982
  13 H :    0.372114
  14 C :   -0.073462
  15 H :    0.130329
  16 H :    0.094346
  17 H :    0.096943
  18 O :   -0.572833
  19 H :    0.384788
  20 C :   -0.109364
  21 H :    0.098541
  22 H :    0.110718
  23 H :    0.090830
  24 O :   -0.620070
  25 H :    0.382942
  26 C :   -0.064624
  27 H :    0.106792
  28 H :    0.087142
  29 H :    0.108155
  30 O :   -0.579611
  31 H :    0.336408
  32 C :   -0.111990
  33 H :    0.137780
  34 H :    0.103170
  35 H :    0.107121
Sum of atomic charges:   -0.0000000

--------------------------------
MULLIKEN REDUCED ORBITAL CHARGES
--------------------------------
  0 O s       :     3.773991  s :     3.773991
      pz      :     1.700610  p :     4.781723
      px      :     1.306323
      py      :     1.774790
      dz2     :     0.006065  d :     0.028840
      dxz     :     0.005683
      dyz     :     0.004732
      dx2y2   :     0.005219
      dxy     :     0.007141
      f0      :     0.000164  f :     0.001948
      f+1     :     0.000445
      f-1     :     0.000111
      f+2     :     0.000254
      f-2     :     0.000243
      f+3     :     0.000275
      f-3     :     0.000456
  1 H s       :     0.591653  s :     0.591653
      pz      :     0.013944  p :     0.057989
      px      :     0.028223
      py      :     0.015821
  2 C s       :     3.165058  s :     3.165058
      pz      :     0.880510  p :     2.768905
      px      :     0.879430
      py      :     1.008964
      dz2     :     0.040085  d :     0.116680
      dxz     :     0.017373
      dyz     :     0.013324
      dx2y2   :     0.026849
      dxy     :     0.019049
      f0      :     0.001160  f :     0.009164
      f+1     :     0.001955
      f-1     :     0.001172
      f+2     :     0.001402
      f-2     :     0.001366
      f+3     :     0.000673
      f-3     :     0.001435
  3 H s       :     0.869555  s :     0.869555
      pz      :     0.004063  p :     0.021860
      px      :     0.012192
      py      :     0.005605
  4 H s       :     0.884928  s :     0.884928
      pz      :     0.012987  p :     0.021632
      px      :     0.003402
      py      :     0.005244
  5 H s       :     0.878370  s :     0.878370
      pz      :     0.003334  p :     0.021613
      px      :     0.003697
      py      :     0.014582
  6 O s       :     3.789803  s :     3.789803
      pz      :     1.533032  p :     4.794231
      px      :     1.877474
      py      :     1.383725
      dz2     :     0.011511  d :     0.030614
      dxz     :     0.002778
      dyz     :     0.004349
      dx2y2   :     0.007149
      dxy     :     0.004826
      f0      :     0.000323  f :     0.001793
      f+1     :     0.000288
      f-1     :     0.000268
      f+2     :     0.000151
      f-2     :     0.000080
      f+3     :     0.000282
      f-3     :     0.000400
  7 H s       :     0.576547  s :     0.576547
      pz      :     0.026498  p :     0.052557
      px      :     0.015932
      py      :     0.010127
  8 C s       :     3.198712  s :     3.198712
      pz      :     1.050914  p :     2.752710
      px      :     1.032223
      py      :     0.669572
      dz2     :     0.018596  d :     0.114226
      dxz     :     0.013855
      dyz     :     0.025716
      dx2y2   :     0.021205
      dxy     :     0.034854
      f0      :     0.001918  f :     0.009497
      f+1     :     0.000295
      f-1     :     0.000788
      f+2     :     0.001522
      f-2     :     0.000525
      f+3     :     0.002412
      f-3     :     0.002036
  9 H s       :     0.869650  s :     0.869650
      pz      :     0.014893  p :     0.021456
      px      :     0.003785
      py      :     0.002778
 10 H s       :     0.857464  s :     0.857464
      pz      :     0.006359  p :     0.020097
      px      :     0.011183
      py      :     0.002556
 11 H s       :     0.894025  s :     0.894025
      pz      :     0.006044  p :     0.020892
      px      :     0.008773
      py      :     0.006074
 12 O s       :     3.814014  s :     3.814014
      pz      :     1.654942  p :     4.771373
      px      :     1.458631
      py      :     1.657800
      dz2     :     0.002817  d :     0.031015
      dxz     :     0.008917
      dyz     :     0.007901
      dx2y2   :     0.007186
      dxy     :     0.004193
      f0      :     0.000135  f :     0.001581
      f+1     :     0.000137
      f-1     :     0.000129
      f+2     :     0.000293
      f-2     :     0.000315
      f+3     :     0.000276
      f-3     :     0.000296
 13 H s       :     0.588591  s :     0.588591
      pz      :     0.014404  p :     0.039295
      px      :     0.009847
      py      :     0.015044
 14 C s       :     3.195944  s :     3.195944
      pz      :     1.027757  p :     2.755368
      px      :     0.734393
      py      :     0.993218
      dz2     :     0.028095  d :     0.112805
      dxz     :     0.016042
      dyz     :     0.012996
      dx2y2   :     0.028584
      dxy     :     0.027088
      f0      :     0.001561  f :     0.009345
      f+1     :     0.001367
      f-1     :     0.000349
      f+2     :     0.001369
      f-2     :     0.001075
      f+3     :     0.001834
      f-3     :     0.001790
 15 H s       :     0.849390  s :     0.849390
      pz      :     0.014954  p :     0.020280
      px      :     0.001979
      py      :     0.003347
 16 H s       :     0.884934  s :     0.884934
      pz      :     0.003899  p :     0.020721
      px      :     0.009531
      py      :     0.007291
 17 H s       :     0.881988  s :     0.881988
      pz      :     0.005733  p :     0.021068
      px      :     0.002804
      py      :     0.012532
 18 O s       :     3.799377  s :     3.799377
      pz      :     1.397005  p :     4.739760
      px      :     1.812066
      py      :     1.530690
      dz2     :     0.013206  d :     0.032043
      dxz     :     0.004298
      dyz     :     0.004995
      dx2y2   :     0.005369
      dxy     :     0.004175
      f0      :     0.000424  f :     0.001654
      f+1     :     0.000373
      f-1     :     0.000176
      f+2     :     0.000078
      f-2     :     0.000114
      f+3     :     0.000346
      f-3     :     0.000142
 19 H s       :     0.569838  s :     0.569838
      pz      :     0.009902  p :     0.045374
      px      :     0.013600
      py      :     0.021871
 20 C s       :     3.199297  s :     3.199297
      pz      :     0.700567  p :     2.777390
      px      :     1.023326
      py      :     1.053497
      dz2     :     0.024491  d :     0.123420
      dxz     :     0.038147
      dyz     :     0.033548
      dx2y2   :     0.006705
      dxy     :     0.020529
      f0      :     0.002884  f :     0.009258
      f+1     :     0.002404
      f-1     :     0.001864
      f+2     :     0.000506
      f-2     :     0.000724
      f+3     :     0.000471
      f-3     :     0.000404
 21 H s       :     0.880757  s :     0.880757
      pz      :     0.007227  p :     0.020702
      px      :     0.008538
      py      :     0.004937
 22 H s       :     0.869735  s :     0.869735
      pz      :     0.003706  p :     0.019546
      px      :     0.004510
      py      :     0.011331
 23 H s       :     0.890308  s :     0.890308
      pz      :     0.002652  p :     0.018862
      px      :     0.008613
      py      :     0.007596
 24 O s       :     3.798040  s :     3.798040
      pz      :     1.407850  p :     4.787560
      px      :     1.786532
      py      :     1.593179
      dz2     :     0.003271  d :     0.032647
      dxz     :     0.004835
      dyz     :     0.014728
      dx2y2   :     0.004113
      dxy     :     0.005700
      f0      :     0.000139  f :     0.001823
      f+1     :     0.000431
      f-1     :     0.000410
      f+2     :     0.000203
      f-2     :     0.000495
      f+3     :     0.000100
      f-3     :     0.000044
 25 H s       :     0.570568  s :     0.570568
      pz      :     0.020676  p :     0.046490
      px      :     0.014198
      py      :     0.011615
 26 C s       :     3.190757  s :     3.190757
      pz      :     0.826166  p :     2.744425
      px      :     1.014724
      py      :     0.903534
      dz2     :     0.024446  d :     0.119351
      dxz     :     0.027974
      dyz     :     0.027090
      dx2y2   :     0.012684
      dxy     :     0.027156
      f0      :     0.001727  f :     0.010091
      f+1     :     0.000709
      f-1     :     0.001780
      f+2     :     0.001864
      f-2     :     0.002451
      f+3     :     0.000852
      f-3     :     0.000708
 27 H s       :     0.870419  s :     0.870419
      pz      :     0.008739  p :     0.022789
      px      :     0.006864
      py      :     0.007186
 28 H s       :     0.894047  s :     0.894047
      pz      :     0.004858  p :     0.018811
      px      :     0.010143
      py      :     0.003811
 29 H s       :     0.871294  s :     0.871294
      pz      :     0.003248  p :     0.020551
      px      :     0.006521
      py      :     0.010782
 30 O s       :     3.806442  s :     3.806442
      pz      :     1.656694  p :     4.741890
      px      :     1.410175
      py      :     1.675021
      dz2     :     0.002610  d :     0.029734
      dxz     :     0.007861
      dyz     :     0.008053
      dx2y2   :     0.007968
      dxy     :     0.003242
      f0      :     0.000134  f :     0.001544
      f+1     :     0.000112
      f-1     :     0.000194
      f+2     :     0.000327
      f-2     :     0.000289
      f+3     :     0.000269
      f-3     :     0.000218
 31 H s       :     0.616393  s :     0.616393
      pz      :     0.016691  p :     0.047199
      px      :     0.012231
      py      :     0.018277
 32 C s       :     3.198204  s :     3.198204
      pz      :     1.024167  p :     2.795629
      px      :     0.723670
      py      :     1.047791
      dz2     :     0.025117  d :     0.109943
      dxz     :     0.018404
      dyz     :     0.013727
      dx2y2   :     0.019033
      dxy     :     0.033662
      f0      :     0.001126  f :     0.008215
      f+1     :     0.001153
      f-1     :     0.000678
      f+2     :     0.001131
      f-2     :     0.000794
      f+3     :     0.002068
      f-3     :     0.001264
 33 H s       :     0.840224  s :     0.840224
      pz      :     0.003595  p :     0.021997
      px      :     0.006418
      py      :     0.011984
 34 H s       :     0.876076  s :     0.876076
      pz      :     0.006618  p :     0.020755
      px      :     0.004027
      py      :     0.010109
 35 H s       :     0.873888  s :     0.873888
      pz      :     0.013051  p :     0.018991
      px      :     0.001710
      py      :     0.004230


                     *******************************
                     * LOEWDIN POPULATION ANALYSIS *
                     *******************************

----------------------
LOEWDIN ATOMIC CHARGES
----------------------
   0 O :   -0.094292
   1 H :    0.128530
   2 C :   -0.321426
   3 H :    0.103062
   4 H :    0.083177
   5 H :    0.083956
   6 O :   -0.116674
   7 H :    0.156297
   8 C :   -0.333045
   9 H :    0.095854
  10 H :    0.102815
  11 H :    0.086795
  12 O :   -0.159070
  13 H :    0.218347
  14 C :   -0.350429
  15 H :    0.103384
  16 H :    0.086509
  17 H :    0.097485
  18 O :   -0.116162
  19 H :    0.196689
  20 C :   -0.367348
  21 H :    0.087808
  22 H :    0.107090
  23 H :    0.096044
  24 O :   -0.079130
  25 H :    0.183080
  26 C :   -0.365585
  27 H :    0.091954
  28 H :    0.095590
  29 H :    0.093615
  30 O :   -0.141318
  31 H :    0.165433
  32 C :   -0.309052
  33 H :    0.087867
  34 H :    0.097855
  35 H :    0.104295

-------------------------------
LOEWDIN REDUCED ORBITAL CHARGES
-------------------------------
  0 O s       :     3.332574  s :     3.332574
      pz      :     1.660822  p :     4.691945
      px      :     1.322431
      py      :     1.708692
      dz2     :     0.015635  d :     0.065888
      dxz     :     0.012884
      dyz     :     0.007610
      dx2y2   :     0.015757
      dxy     :     0.014002
      f0      :     0.000398  f :     0.003885
      f+1     :     0.000857
      f-1     :     0.000314
      f+2     :     0.000595
      f-2     :     0.000580
      f+3     :     0.000458
      f-3     :     0.000684
  1 H s       :     0.676670  s :     0.676670
      pz      :     0.044301  p :     0.194800
      px      :     0.096520
      py      :     0.053978
  2 C s       :     2.834210  s :     2.834210
      pz      :     0.975756  p :     3.002249
      px      :     0.951427
      py      :     1.075067
      dz2     :     0.132318  d :     0.426634
      dxz     :     0.076194
      dyz     :     0.056619
      dx2y2   :     0.088365
      dxy     :     0.073139
      f0      :     0.005815  f :     0.058333
      f+1     :     0.012337
      f-1     :     0.007355
      f+2     :     0.008365
      f-2     :     0.012728
      f+3     :     0.004162
      f-3     :     0.007571
  3 H s       :     0.836572  s :     0.836572
      pz      :     0.013119  p :     0.060367
      px      :     0.029900
      py      :     0.017348
  4 H s       :     0.852189  s :     0.852189
      pz      :     0.034705  p :     0.064635
      px      :     0.012574
      py      :     0.017356
  5 H s       :     0.850819  s :     0.850819
      pz      :     0.012373  p :     0.065225
      px      :     0.012963
      py      :     0.039890
  6 O s       :     3.353945  s :     3.353945
      pz      :     1.480199  p :     4.690898
      px      :     1.782968
      py      :     1.427731
      dz2     :     0.017262  d :     0.067451
      dxz     :     0.002895
      dyz     :     0.017110
      dx2y2   :     0.015232
      dxy     :     0.014951
      f0      :     0.000949  f :     0.004380
      f+1     :     0.000471
      f-1     :     0.000564
      f+2     :     0.000545
      f-2     :     0.000191
      f+3     :     0.000861
      f-3     :     0.000799
  7 H s       :     0.662389  s :     0.662389
      pz      :     0.096791  p :     0.181315
      px      :     0.051800
      py      :     0.032723
  8 C s       :     2.861057  s :     2.861057
      pz      :     1.084545  p :     2.990663
      px      :     1.080278
      py      :     0.825840
      dz2     :     0.069504  d :     0.421292
      dxz     :     0.037545
      dyz     :     0.088465
      dx2y2   :     0.097365
      dxy     :     0.128413
      f0      :     0.007897  f :     0.060032
      f+1     :     0.001634
      f-1     :     0.007298
      f+2     :     0.010030
      f-2     :     0.004625
      f+3     :     0.015175
      f-3     :     0.013373
  9 H s       :     0.844002  s :     0.844002
      pz      :     0.038400  p :     0.060144
      px      :     0.013073
      py      :     0.008670
 10 H s       :     0.839570  s :     0.839570
      pz      :     0.018401  p :     0.057615
      px      :     0.030841
      py      :     0.008373
 11 H s       :     0.853384  s :     0.853384
      pz      :     0.018237  p :     0.059822
      px      :     0.025204
      py      :     0.016380
 12 O s       :     3.405971  s :     3.405971
      pz      :     1.615269  p :     4.682164
      px      :     1.480687
      py      :     1.586208
      dz2     :     0.007317  d :     0.066979
      dxz     :     0.017801
      dyz     :     0.011060
      dx2y2   :     0.014894
      dxy     :     0.015907
      f0      :     0.000247  f :     0.003956
      f+1     :     0.000741
      f-1     :     0.000298
      f+2     :     0.000743
      f-2     :     0.000622
      f+3     :     0.000637
      f-3     :     0.000668
 13 H s       :     0.650120  s :     0.650120
      pz      :     0.051616  p :     0.131533
      px      :     0.027638
      py      :     0.052279
 14 C s       :     2.867150  s :     2.867150
      pz      :     1.075763  p :     3.000054
      px      :     0.874373
      py      :     1.049919
      dz2     :     0.090688  d :     0.424460
      dxz     :     0.082058
      dyz     :     0.044946
      dx2y2   :     0.106460
      dxy     :     0.100307
      f0      :     0.005768  f :     0.058764
      f+1     :     0.008840
      f-1     :     0.001428
      f+2     :     0.012509
      f-2     :     0.009184
      f+3     :     0.011809
      f-3     :     0.009225
 15 H s       :     0.837989  s :     0.837989
      pz      :     0.039929  p :     0.058627
      px      :     0.007239
      py      :     0.011459
 16 H s       :     0.853132  s :     0.853132
      pz      :     0.013691  p :     0.060359
      px      :     0.025058
      py      :     0.021610
 17 H s       :     0.844442  s :     0.844442
      pz      :     0.017862  p :     0.058073
      px      :     0.009036
      py      :     0.031175
 18 O s       :     3.385242  s :     3.385242
      pz      :     1.445378  p :     4.660987
      px      :     1.723629
      py      :     1.491980
      dz2     :     0.024786  d :     0.065857
      dxz     :     0.013649
      dyz     :     0.014782
      dx2y2   :     0.006316
      dxy     :     0.006323
      f0      :     0.001094  f :     0.004076
      f+1     :     0.000922
      f-1     :     0.001057
      f+2     :     0.000199
      f-2     :     0.000210
      f+3     :     0.000455
      f-3     :     0.000139
 19 H s       :     0.645775  s :     0.645775
      pz      :     0.029226  p :     0.157535
      px      :     0.043466
      py      :     0.084843
 20 C s       :     2.868361  s :     2.868361
      pz      :     0.843603  p :     3.004870
      px      :     1.078402
      py      :     1.082865
      dz2     :     0.119082  d :     0.438180
      dxz     :     0.138126
      dyz     :     0.104355
      dx2y2   :     0.018614
      dxy     :     0.058003
      f0      :     0.016651  f :     0.055937
      f+1     :     0.013702
      f-1     :     0.012946
      f+2     :     0.005619
      f-2     :     0.004379
      f+3     :     0.001457
      f-3     :     0.001183
 21 H s       :     0.851664  s :     0.851664
      pz      :     0.019683  p :     0.060528
      px      :     0.025196
      py      :     0.015649
 22 H s       :     0.840462  s :     0.840462
      pz      :     0.009693  p :     0.052449
      px      :     0.012953
      py      :     0.029803
 23 H s       :     0.851229  s :     0.851229
      pz      :     0.007975  p :     0.052727
      px      :     0.023635
      py      :     0.021117
 24 O s       :     3.343407  s :     3.343407
      pz      :     1.393747  p :     4.655420
      px      :     1.673477
      py      :     1.588196
      dz2     :     0.015701  d :     0.075638
      dxz     :     0.015432
      dyz     :     0.025689
      dx2y2   :     0.007916
      dxy     :     0.010900
      f0      :     0.000553  f :     0.004665
      f+1     :     0.000642
      f-1     :     0.001088
      f+2     :     0.000803
      f-2     :     0.001009
      f+3     :     0.000335
      f-3     :     0.000235
 25 H s       :     0.653354  s :     0.653354
      pz      :     0.067113  p :     0.163566
      px      :     0.047356
      py      :     0.049098
 26 C s       :     2.848024  s :     2.848024
      pz      :     0.927706  p :     2.989918
      px      :     1.059120
      py      :     1.003093
      dz2     :     0.082702  d :     0.459414
      dxz     :     0.105268
      dyz     :     0.120250
      dx2y2   :     0.045244
      dxy     :     0.105950
      f0      :     0.014147  f :     0.068228
      f+1     :     0.005327
      f-1     :     0.012087
      f+2     :     0.013716
      f-2     :     0.011811
      f+3     :     0.005125
      f-3     :     0.006016
 27 H s       :     0.842187  s :     0.842187
      pz      :     0.022972  p :     0.065859
      px      :     0.020766
      py      :     0.022121
 28 H s       :     0.853105  s :     0.853105
      pz      :     0.013407  p :     0.051305
      px      :     0.026723
      py      :     0.011175
 29 H s       :     0.846761  s :     0.846761
      pz      :     0.011153  p :     0.059624
      px      :     0.019876
      py      :     0.028595
 30 O s       :     3.396358  s :     3.396358
      pz      :     1.625587  p :     4.681077
      px      :     1.441054
      py      :     1.614436
      dz2     :     0.005999  d :     0.060211
      dxz     :     0.015743
      dyz     :     0.011010
      dx2y2   :     0.015223
      dxy     :     0.012235
      f0      :     0.000259  f :     0.003672
      f+1     :     0.000555
      f-1     :     0.000302
      f+2     :     0.000836
      f-2     :     0.000589
      f+3     :     0.000555
      f-3     :     0.000577
 31 H s       :     0.668560  s :     0.668560
      pz      :     0.063274  p :     0.166007
      px      :     0.036362
      py      :     0.066372
 32 C s       :     2.875548  s :     2.875548
      pz      :     1.066297  p :     2.997475
      px      :     0.837631
      py      :     1.093546
      dz2     :     0.076054  d :     0.386934
      dxz     :     0.081863
      dyz     :     0.043830
      dx2y2   :     0.075478
      dxy     :     0.109709
      f0      :     0.005030  f :     0.049095
      f+1     :     0.007591
      f-1     :     0.001862
      f+2     :     0.010062
      f-2     :     0.005939
      f+3     :     0.011221
      f-3     :     0.007389
 33 H s       :     0.844225  s :     0.844225
      pz      :     0.013644  p :     0.067908
      px      :     0.019987
      py      :     0.034277
 34 H s       :     0.843962  s :     0.843962
      pz      :     0.019715  p :     0.058184
      px      :     0.011415
      py      :     0.027054
 35 H s       :     0.843199  s :     0.843199
      pz      :     0.033659  p :     0.052506
      px      :     0.006212
      py      :     0.012636


                      *****************************
                      * MAYER POPULATION ANALYSIS *
                      *****************************

  NA   - Mulliken gross atomic population
  ZA   - Total nuclear charge
  QA   - Mulliken gross atomic charge
  VA   - Mayer's total valence
  BVA  - Mayer's bonded valence
  FA   - Mayer's free valence

  ATOM       NA         ZA         QA         VA         BVA        FA
  0 O      8.5865     8.0000    -0.5865     1.7635     1.7635    -0.0000
  1 H      0.6496     1.0000     0.3504     0.9114     0.9114    -0.0000
  2 C      6.0598     6.0000    -0.0598     3.8870     3.8870     0.0000
  3 H      0.8914     1.0000     0.1086     0.9643     0.9643    -0.0000
  4 H      0.9066     1.0000     0.0934     0.9597     0.9597    -0.0000
  5 H      0.9000     1.0000     0.1000     0.9602     0.9602    -0.0000
  6 O      8.6164     8.0000    -0.6164     1.7155     1.7155    -0.0000
  7 H      0.6291     1.0000     0.3709     0.8959     0.8959    -0.0000
  8 C      6.0751     6.0000    -0.0751     3.8587     3.8587    -0.0000
  9 H      0.8911     1.0000     0.1089     0.9679     0.9679    -0.0000
 10 H      0.8776     1.0000     0.1224     0.9673     0.9673    -0.0000
 11 H      0.9149     1.0000     0.0851     0.9577     0.9577    -0.0000
 12 O      8.6180     8.0000    -0.6180     1.7166     1.7166    -0.0000
 13 H      0.6279     1.0000     0.3721     0.8814     0.8814    -0.0000
 14 C      6.0735     6.0000    -0.0735     3.8369     3.8369    -0.0000
 15 H      0.8697     1.0000     0.1303     0.9684     0.9684    -0.0000
 16 H      0.9057     1.0000     0.0943     0.9633     0.9633    -0.0000
 17 H      0.9031     1.0000     0.0969     0.9657     0.9657    -0.0000
 18 O      8.5728     8.0000    -0.5728     1.7641     1.7641    -0.0000
 19 H      0.6152     1.0000     0.3848     0.8650     0.8650    -0.0000
 20 C      6.1094     6.0000    -0.1094     3.9107     3.9107    -0.0000
 21 H      0.9015     1.0000     0.0985     0.9558     0.9558    -0.0000
 22 H      0.8893     1.0000     0.1107     0.9651     0.9651    -0.0000
 23 H      0.9092     1.0000     0.0908     0.9565     0.9565    -0.0000
 24 O      8.6201     8.0000    -0.6201     1.7171     1.7171    -0.0000
 25 H      0.6171     1.0000     0.3829     0.8706     0.8706    -0.0000
 26 C      6.0646     6.0000    -0.0646     3.8611     3.8611    -0.0000
 27 H      0.8932     1.0000     0.1068     0.9650     0.9650    -0.0000
 28 H      0.9129     1.0000     0.0871     0.9692     0.9692    -0.0000
 29 H      0.8918     1.0000     0.1082     0.9600     0.9600    -0.0000
 30 O      8.5796     8.0000    -0.5796     1.7678     1.7678    -0.0000
 31 H      0.6636     1.0000     0.3364     0.9326     0.9326    -0.0000
 32 C      6.1120     6.0000    -0.1120     3.8353     3.8353     0.0000
 33 H      0.8622     1.0000     0.1378     0.9655     0.9655    -0.0000
 34 H      0.8968     1.0000     0.1032     0.9589     0.9589    -0.0000
 35 H      0.8929     1.0000     0.1071     0.9707     0.9707    -0.0000

  Mayer bond orders larger than 0.100000
B(  0-O ,  1-H ) :   0.8531 B(  0-O ,  2-C ) :   0.9064 B(  2-C ,  3-H ) :   0.9911 
B(  2-C ,  4-H ) :   0.9910 B(  2-C ,  5-H ) :   0.9861 B(  6-O ,  7-H ) :   0.8375 
B(  6-O ,  8-C ) :   0.8921 B(  8-C ,  9-H ) :   0.9873 B(  8-C , 10-H ) :   0.9973 
B(  8-C , 11-H ) :   0.9861 B( 12-O , 13-H ) :   0.8408 B( 12-O , 14-C ) :   0.8833 
B( 14-C , 15-H ) :   0.9812 B( 14-C , 16-H ) :   0.9859 B( 14-C , 17-H ) :   0.9928 
B( 18-O , 19-H ) :   0.8303 B( 18-O , 20-C ) :   0.9460 B( 20-C , 21-H ) :   0.9872 
B( 20-C , 22-H ) :   0.9862 B( 20-C , 23-H ) :   0.9812 B( 24-O , 25-H ) :   0.8210 
B( 24-O , 26-C ) :   0.8954 B( 26-C , 27-H ) :   0.9871 B( 26-C , 28-H ) :   1.0014 
B( 26-C , 29-H ) :   0.9828 B( 30-O , 31-H ) :   0.8648 B( 30-O , 32-C ) :   0.8920 
B( 32-C , 33-H ) :   0.9823 B( 32-C , 34-H ) :   0.9860 B( 32-C , 35-H ) :   0.9844 


-------
TIMINGS
-------

Total SCF time: 0 days 0 hours 0 min 20 sec 

Total time                  ....      20.359 sec
Sum of individual times     ....      19.481 sec  ( 95.7%)

Fock matrix formation       ....      17.441 sec  ( 85.7%)
Diagonalization             ....       0.338 sec  (  1.7%)
Density matrix formation    ....       0.020 sec  (  0.1%)
Population analysis         ....       0.179 sec  (  0.9%)
Initial guess               ....       0.150 sec  (  0.7%)
Orbital Transformation      ....       0.000 sec  (  0.0%)
Orbital Orthonormalization  ....       0.130 sec  (  0.6%)
DIIS solution               ....       0.120 sec  (  0.6%)
SOSCF solution              ....       1.232 sec  (  6.1%)


           ************************************************************
           *        Program running with 24 parallel MPI-processes    *
           *              working on a common directory               *
           ************************************************************

------------------------------------------------------------------------------
                                ORCA  MP2 
------------------------------------------------------------------------------

Freezing NCore=24 chemical core electrons
MP2 will be done in the AO integral direct mode
The Q1-step will be done using symmetric double matrices
Dimension of the basis                    ...  516
Memory devoted for MP2                    ... 8000 MB   
Memory needed for all in one shot         ... 1051 MB
Number of MOs that can be treated together...   14      
MP2 density construction                  ... relaxed
The MP2 gradient is requested => amplitudes will be stored on disk
Total number of MOs              ...   42
Number of MOs treated per batch  ...    2 
Number of batches necessary      ...    1 
OPERATORS   0/  0 PASS   0
-----------------------------------------------
 MP2 CORRELATION ENERGY   :     -2.529122453 Eh
[...]
  8 C s       :     2.866271  s :     2.866271
      pz      :     1.091658  p :     3.015926
      px      :     1.090213
      py      :     0.834055
      dz2     :     0.070624  d :     0.432227
      dxz     :     0.039676
      dyz     :     0.092116
      dx2y2   :     0.097269
      dxy     :     0.132541
      f0      :     0.008361  f :     0.063276
      f+1     :     0.002239
      f-1     :     0.007984
      f+2     :     0.010332
      f-2     :     0.005258
      f+3     :     0.015284
      f-3     :     0.013817
  9 H s       :     0.829641  s :     0.829641
      pz      :     0.040307  p :     0.065766
      px      :     0.014854
      py      :     0.010606
 10 H s       :     0.825835  s :     0.825835
      pz      :     0.020153  p :     0.063580
      px      :     0.032905
      py      :     0.010522
 11 H s       :     0.840205  s :     0.840205
      pz      :     0.020030  p :     0.065935
      px      :     0.027117
      py      :     0.018789
 12 O s       :     3.404934  s :     3.404934
      pz      :     1.589098  p :     4.621900
      px      :     1.463714
      py      :     1.569088
      dz2     :     0.013288  d :     0.096628
      dxz     :     0.023663
      dyz     :     0.017028
      dx2y2   :     0.020768
      dxy     :     0.021882
      f0      :     0.000669  f :     0.006988
      f+1     :     0.001163
      f-1     :     0.000699
      f+2     :     0.001194
      f-2     :     0.001084
      f+3     :     0.001075
      f-3     :     0.001105
 13 H s       :     0.651979  s :     0.651979
      pz      :     0.053050  p :     0.135442
      px      :     0.028714
      py      :     0.053679
 14 C s       :     2.872794  s :     2.872794
      pz      :     1.083875  p :     3.026823
      px      :     0.883184
      py      :     1.059765
      dz2     :     0.090781  d :     0.434836
      dxz     :     0.085733
      dyz     :     0.047968
      dx2y2   :     0.109158
      dxy     :     0.101196
      f0      :     0.006557  f :     0.061896
      f+1     :     0.009024
      f-1     :     0.002025
      f+2     :     0.013014
      f-2     :     0.009525
      f+3     :     0.012053
      f-3     :     0.009697
 15 H s       :     0.825505  s :     0.825505
      pz      :     0.041797  p :     0.064274
      px      :     0.009186
      py      :     0.013291
 16 H s       :     0.839871  s :     0.839871
      pz      :     0.015464  p :     0.066433
      px      :     0.027458
      py      :     0.023511
 17 H s       :     0.828876  s :     0.828876
      pz      :     0.019720  p :     0.064007
      px      :     0.010874
      py      :     0.033414
 18 O s       :     3.384606  s :     3.384606
      pz      :     1.427556  p :     4.601432
      px      :     1.698749
      py      :     1.475127
      dz2     :     0.030360  d :     0.095380
      dxz     :     0.019858
      dyz     :     0.020769
      dx2y2   :     0.012264
      dxy     :     0.012129
      f0      :     0.001607  f :     0.007132
      f+1     :     0.001387
      f-1     :     0.001515
      f+2     :     0.000605
      f-2     :     0.000609
      f+3     :     0.000875
      f-3     :     0.000533
 19 H s       :     0.648021  s :     0.648021
      pz      :     0.030425  p :     0.161179
      px      :     0.045147
      py      :     0.085607
 20 C s       :     2.873531  s :     2.873531
      pz      :     0.847061  p :     3.030860
      px      :     1.090197
      py      :     1.093602
      dz2     :     0.120065  d :     0.450378
      dxz     :     0.140821
      dyz     :     0.107707
      dx2y2   :     0.022361
      dxy     :     0.059424
      f0      :     0.017186  f :     0.059230
      f+1     :     0.013978
      f-1     :     0.013135
      f+2     :     0.006135
      f-2     :     0.004952
      f+3     :     0.002069
      f-3     :     0.001775
 21 H s       :     0.838171  s :     0.838171
      pz      :     0.021873  p :     0.066420
      px      :     0.027176
      py      :     0.017371
 22 H s       :     0.824990  s :     0.824990
      pz      :     0.011405  p :     0.057636
      px      :     0.014615
      py      :     0.031617
 23 H s       :     0.837204  s :     0.837204
      pz      :     0.009829  p :     0.058489
      px      :     0.025640
      py      :     0.023021
 24 O s       :     3.343287  s :     3.343287
      pz      :     1.382587  p :     4.594349
      px      :     1.647214
      py      :     1.564548
      dz2     :     0.022027  d :     0.106188
      dxz     :     0.021803
      dyz     :     0.031180
      dx2y2   :     0.014223
      dxy     :     0.016955
      f0      :     0.000992  f :     0.007834
      f+1     :     0.001081
      f-1     :     0.001607
      f+2     :     0.001258
      f-2     :     0.001511
      f+3     :     0.000741
      f-3     :     0.000643
 25 H s       :     0.656100  s :     0.656100
      pz      :     0.068011  p :     0.167676
      px      :     0.048908
      py      :     0.050756
 26 C s       :     2.852795  s :     2.852795
      pz      :     0.935923  p :     3.015288
      px      :     1.069713
      py      :     1.009652
      dz2     :     0.086141  d :     0.469294
      dxz     :     0.106179
      dyz     :     0.120652
      dx2y2   :     0.049148
      dxy     :     0.107175
      f0      :     0.014322  f :     0.071176
      f+1     :     0.005855
      f-1     :     0.012549
      f+2     :     0.014076
      f-2     :     0.012223
      f+3     :     0.005679
      f-3     :     0.006470
 27 H s       :     0.828292  s :     0.828292
      pz      :     0.025058  p :     0.071660
      px      :     0.022796
      py      :     0.023805
 28 H s       :     0.837549  s :     0.837549
      pz      :     0.015674  p :     0.057768
      px      :     0.028841
      py      :     0.013254
 29 H s       :     0.833080  s :     0.833080
      pz      :     0.013028  p :     0.065539
      px      :     0.021798
      py      :     0.030714
 30 O s       :     3.395867  s :     3.395867
      pz      :     1.599252  p :     4.618329
      px      :     1.422171
      py      :     1.596906
      dz2     :     0.011987  d :     0.089895
      dxz     :     0.021722
      dyz     :     0.016993
      dx2y2   :     0.020992
      dxy     :     0.018201
      f0      :     0.000682  f :     0.006675
      f+1     :     0.000977
      f-1     :     0.000708
      f+2     :     0.001290
      f-2     :     0.001024
      f+3     :     0.000999
      f-3     :     0.000996
 31 H s       :     0.669323  s :     0.669323
      pz      :     0.064750  p :     0.170155
      px      :     0.037329
      py      :     0.068075
 32 C s       :     2.881587  s :     2.881587
      pz      :     1.076454  p :     3.025007
      px      :     0.847259
      py      :     1.101294
      dz2     :     0.077307  d :     0.399593
      dxz     :     0.085815
      dyz     :     0.046991
      dx2y2   :     0.077963
      dxy     :     0.111516
      f0      :     0.005745  f :     0.052569
      f+1     :     0.007838
      f-1     :     0.002517
      f+2     :     0.010591
      f-2     :     0.006356
      f+3     :     0.011781
      f-3     :     0.007740
 33 H s       :     0.833444  s :     0.833444
      pz      :     0.015498  p :     0.073799
      px      :     0.022290
      py      :     0.036011
 34 H s       :     0.829117  s :     0.829117
      pz      :     0.021529  p :     0.063862
      px      :     0.013352
      py      :     0.028980
 35 H s       :     0.828501  s :     0.828501
      pz      :     0.035699  p :     0.058175
      px      :     0.008104
      py      :     0.014373


                      *****************************
                      * MAYER POPULATION ANALYSIS *
                      *****************************

  NA   - Mulliken gross atomic population
  ZA   - Total nuclear charge
  QA   - Mulliken gross atomic charge
  VA   - Mayer's total valence
  BVA  - Mayer's bonded valence
  FA   - Mayer's free valence

  ATOM       NA         ZA         QA         VA         BVA        FA
  0 O      8.5227     8.0000    -0.5227     2.1446     1.7503     0.3942
  1 H      0.6721     1.0000     0.3279     0.9471     0.9012     0.0459
  2 C      6.1617     6.0000    -0.1617     4.0130     3.7439     0.2691
  3 H      0.8686     1.0000     0.1314     0.9639     0.9181     0.0458
  4 H      0.8865     1.0000     0.1135     0.9604     0.9136     0.0468
  5 H      0.8805     1.0000     0.1195     0.9621     0.9162     0.0459
  6 O      8.5531     8.0000    -0.5531     2.0980     1.6984     0.3996
  7 H      0.6552     1.0000     0.3448     0.9331     0.8868     0.0463
  8 C      6.1734     6.0000    -0.1734     3.9858     3.7084     0.2774
  9 H      0.8721     1.0000     0.1279     0.9720     0.9262     0.0458
 10 H      0.8588     1.0000     0.1412     0.9711     0.9228     0.0483
 11 H      0.8952     1.0000     0.1048     0.9596     0.9111     0.0485
 12 O      8.5553     8.0000    -0.5553     2.1084     1.6934     0.4151
 13 H      0.6475     1.0000     0.3525     0.9072     0.8528     0.0545
 14 C      6.1695     6.0000    -0.1695     3.9608     3.6812     0.2796
 15 H      0.8554     1.0000     0.1446     0.9759     0.9278     0.0481
 16 H      0.8859     1.0000     0.1141     0.9637     0.9159     0.0479
 17 H      0.8815     1.0000     0.1185     0.9692     0.9211     0.0481
 18 O      8.5123     8.0000    -0.5123     2.1497     1.7469     0.4028
 19 H      0.6356     1.0000     0.3644     0.8900     0.8414     0.0487
 20 C      6.2052     6.0000    -0.2052     4.0335     3.7441     0.2894
 21 H      0.8824     1.0000     0.1176     0.9580     0.9085     0.0495
 22 H      0.8691     1.0000     0.1309     0.9667     0.9170     0.0497
 23 H      0.8918     1.0000     0.1082     0.9573     0.9045     0.0528
 24 O      8.5558     8.0000    -0.5558     2.1193     1.7219     0.3974
 25 H      0.6411     1.0000     0.3589     0.9019     0.8549     0.0470
 26 C      6.1639     6.0000    -0.1639     3.9841     3.7124     0.2717
 27 H      0.8711     1.0000     0.1289     0.9657     0.9215     0.0442
 28 H      0.8915     1.0000     0.1085     0.9729     0.9212     0.0517
 29 H      0.8740     1.0000     0.1260     0.9636     0.9166     0.0470
 30 O      8.5125     8.0000    -0.5125     2.1430     1.7348     0.4082
 31 H      0.6919     1.0000     0.3081     0.9724     0.9218     0.0506
 32 C      6.2091     6.0000    -0.2091     3.9551     3.6650     0.2901
 33 H      0.8478     1.0000     0.1522     0.9730     0.9278     0.0452
 34 H      0.8756     1.0000     0.1244     0.9619     0.9139     0.0481
 35 H      0.8743     1.0000     0.1257     0.9716     0.9214     0.0502

  Mayer bond orders larger than 0.100000
B(  0-O ,  1-H ) :   0.8135 B(  0-O ,  2-C ) :   0.9026 B(  2-C ,  3-H ) :   0.9447 
B(  2-C ,  4-H ) :   0.9438 B(  2-C ,  5-H ) :   0.9399 B(  6-O ,  7-H ) :   0.7976 
B(  6-O ,  8-C ) :   0.8833 B(  8-C ,  9-H ) :   0.9437 B(  8-C , 10-H ) :   0.9462 
B(  8-C , 11-H ) :   0.9358 B( 12-O , 13-H ) :   0.7947 B( 12-O , 14-C ) :   0.8724 
B( 14-C , 15-H ) :   0.9298 B( 14-C , 16-H ) :   0.9371 B( 14-C , 17-H ) :   0.9444 
B( 18-O , 19-H ) :   0.7882 B( 18-O , 20-C ) :   0.9312 B( 20-C , 21-H ) :   0.9369 
B( 20-C , 22-H ) :   0.9372 B( 20-C , 23-H ) :   0.9233 B( 24-O , 25-H ) :   0.7792 
B( 24-O , 26-C ) :   0.8912 B( 26-C , 27-H ) :   0.9440 B( 26-C , 28-H ) :   0.9470 
B( 26-C , 29-H ) :   0.9347 B( 30-O , 31-H ) :   0.8202 B( 30-O , 32-C ) :   0.8687 
B( 32-C , 33-H ) :   0.9349 B( 32-C , 34-H ) :   0.9372 B( 32-C , 35-H ) :   0.9309 



----------------------------------
MP2 DERIVATIVE INTEGRAL GENERATION
----------------------------------


Input Wavefunction Amplitudes       ... orcacalc.mp2tsaa.tmp
Input Correlated Electron Density   ... orcacalc.pmp2re
Input Energy Weighted Density       ... orcacalc.wmp2.tmp
Input SCF Electron Density          ... orcacalc.scfp

One-Electron Terms    ...
                        ... One-Electron Terms done
Prescreening matrices              ... done

Batch handling in the gradient evaluation:
Memory available                      ... 8000.0 MB
Memory per occupied orbital in Q2     ...   85.3 MB
Memory per occupied orbital in Q3     ...    0.2 MB
Total memory requirement per |i>      ...   85.5 MB
Max. Number of orbitals possible      ...     93
Number of orbitals treated per batch  ...     42
Number of batches to be done          ...      1
Batch   0: i=   12 ...    53

---------------------------------------
MP2 TOTAL ENERGY:     -693.062345283 Eh
---------------------------------------

The final MP2 gradient
  0:   0.04379882   0.01840282  -0.01471380
  1:  -0.03175518  -0.02364107   0.01445655
  2:  -0.00654776   0.02256321  -0.01411466
  3:   0.00649308   0.00353228  -0.00284455
  4:  -0.00602509   0.00803603   0.02489561
  5:  -0.00677184  -0.02769302  -0.00719079
  6:  -0.01458886  -0.00407238   0.01983044
  7:   0.00724736  -0.00639806  -0.02100100
  8:   0.02431621  -0.00960316  -0.02126086
  9:  -0.00376163   0.01171641   0.00081902
 10:  -0.00606146   0.00458995   0.01293142
 11:  -0.00636335   0.00298903   0.01116417
 12:   0.03147162   0.05480114   0.03778896
 13:  -0.02151597  -0.03969204  -0.03049225
 14:   0.00668252  -0.02587671   0.00373714
 15:   0.00367985   0.00646112  -0.01766196
 16:  -0.00155220   0.00128479  -0.00168163
 17:  -0.01770887   0.00094228   0.00439131
 18:  -0.00279853   0.02329017   0.01378381
 19:   0.00890136  -0.01443007  -0.00422292
 20:   0.03088723  -0.00114730   0.04030758
 21:  -0.01130828  -0.00743629  -0.00918747
 22:  -0.01126379   0.02461504  -0.02019181
 23:  -0.01128110  -0.01995840  -0.02276844
 24:   0.01251000   0.01806966   0.03706549
 25:  -0.01215628  -0.00031846  -0.00066051
 26:   0.04969664  -0.03899522  -0.01379825
 27:  -0.02176117   0.01131176  -0.02275573
 28:  -0.02580029   0.00138762   0.00317934
 29:  -0.00510150   0.00334826   0.00072203
 30:  -0.03048648   0.00747959  -0.00950675
 31:   0.00836311  -0.00399975  -0.00302781
 32:   0.02120550   0.03059629  -0.01544476
 33:  -0.01040463  -0.01437667   0.00289792
 34:   0.00336438  -0.00804098  -0.00446125
 35:   0.00639656  -0.00973785   0.02901640

-----------------------------------
NORM OF THE MP2 GRADIENT:  0.193931
-----------------------------------

-------------------------   --------------------
FINAL SINGLE POINT ENERGY      -693.062345283352
-------------------------   --------------------


                            ***************************************
                            *     ORCA property calculations      *
                            ***************************************

                                    ---------------------
                                    Active property flags
                                    ---------------------
   (+) Dipole Moment


------------------------------------------------------------------------------
                       ORCA ELECTRIC PROPERTIES CALCULATION
------------------------------------------------------------------------------

Dipole Moment Calculation                       ... on
Quadrupole Moment Calculation                   ... off
Polarizability Calculation                      ... off
GBWName                                         ... orcacalc.gbw
Electron density file                           ... orcacalc.scfp
The origin for moment calculation is the CENTER OF MASS  = ( 0.002229, -0.006279  0.015712)

-------------
DIPOLE MOMENT
-------------
                                X             Y             Z
Electronic contribution:     -1.08767       0.06962       1.78590
Nuclear contribution   :      1.72256       0.05517      -2.20975
                        -----------------------------------------
Total Dipole Moment    :      0.63489       0.12479      -0.42385
                        -----------------------------------------
Magnitude (a.u.)       :      0.77350
Magnitude (Debye)      :      1.96608



--------------------
Rotational spectrum 
--------------------
 
Rotational constants in cm-1:     0.020052     0.012101     0.010024 
Rotational constants in MHz :   601.136992   362.774630   300.498629 

 Dipole components along the rotational axes: 
x,y,z [a.u.] :    -0.519016    -0.233317     0.523917 
x,y,z [Debye]:    -1.319235    -0.593044     1.331690 

 

                         *** MP2 UNRELAXED DENSITY ***

------------------------------------------------------------------------------
                       ORCA ELECTRIC PROPERTIES CALCULATION
------------------------------------------------------------------------------

Dipole Moment Calculation                       ... on
Quadrupole Moment Calculation                   ... off
Polarizability Calculation                      ... off
GBWName                                         ... orcacalc.gbw
Electron density file                           ... orcacalc.pmp2ur
The origin for moment calculation is the CENTER OF MASS  = ( 0.002229, -0.006279  0.015712)

-------------
DIPOLE MOMENT
-------------
                                X             Y             Z
Electronic contribution:     -1.10406       0.07379       1.80047
Nuclear contribution   :      1.72256       0.05517      -2.20975
                        -----------------------------------------
Total Dipole Moment    :      0.61850       0.12896      -0.40928
                        -----------------------------------------
Magnitude (a.u.)       :      0.75278
Magnitude (Debye)      :      1.91343



--------------------
Rotational spectrum 
--------------------
 
Rotational constants in cm-1:     0.020052     0.012101     0.010024 
Rotational constants in MHz :   601.136992   362.774630   300.498629 

 Dipole components along the rotational axes: 
x,y,z [a.u.] :    -0.501356    -0.234342     0.510304 
x,y,z [Debye]:    -1.274346    -0.595649     1.297090 

 

                           *** MP2 RELAXED DENSITY ***

------------------------------------------------------------------------------
                       ORCA ELECTRIC PROPERTIES CALCULATION
------------------------------------------------------------------------------

Dipole Moment Calculation                       ... on
Quadrupole Moment Calculation                   ... off
Polarizability Calculation                      ... off
GBWName                                         ... orcacalc.gbw
Electron density file                           ... orcacalc.pmp2re
The origin for moment calculation is the CENTER OF MASS  = ( 0.002229, -0.006279  0.015712)

-------------
DIPOLE MOMENT
-------------
                                X             Y             Z
Electronic contribution:     -1.15136       0.08979       1.82027
Nuclear contribution   :      1.72256       0.05517      -2.20975
                        -----------------------------------------
Total Dipole Moment    :      0.57120       0.14496      -0.38948
                        -----------------------------------------
Magnitude (a.u.)       :      0.70638
Magnitude (Debye)      :      1.79548



--------------------
Rotational spectrum 
--------------------
 
Rotational constants in cm-1:     0.020052     0.012101     0.010024 
Rotational constants in MHz :   601.136992   362.774630   300.498629 

 Dipole components along the rotational axes: 
x,y,z [a.u.] :    -0.471753    -0.242876     0.466302 
x,y,z [Debye]:    -1.199102    -0.617341     1.185244 

 

Timings for individual modules:

Sum of individual times         ...      397.692 sec (=   6.628 min)
GTO integral calculation        ...        1.220 sec (=   0.020 min)   0.3 %
SCF iterations                  ...       21.084 sec (=   0.351 min)   5.3 %
MP2 module                      ...      375.388 sec (=   6.256 min)  94.4 %
                             ****ORCA TERMINATED NORMALLY****
TOTAL RUN TIME: 0 days 0 hours 6 minutes 39 seconds 234 msec
