18
energy=-0.0032770944 Properties=species:S:1:pos:R:3:forces:R:3 pbc="T T T" Lattice="200.000 0.000 0.000 0.000 200.000 0.000 0.000 0.000 200.000"
C   -1.8470895335    0.7719501401    3.7230863416    0.0006643731    0.0004257747    0.0004663981
H   -2.4019023997    1.7225424840    3.6953524708   -0.0002581388   -0.0004833674    0.0002427122
H   -0.7505562869    0.7253959454    3.4557537704    0.0006582025   -0.0002103163   -0.0019283275
H   -1.8946014243    0.3328740733    4.6508929801   -0.0004669124   -0.0001630080    0.0001923185
C   -2.4258164629   -0.1014521550    2.7178991266    0.0011523685    0.0007445915    0.0004669124
N   -2.8230771210   -0.8580918247    1.9435033627   -0.0003872082   -0.0004108623   -0.0009564504
C    1.9430821681   -2.4664641072   -2.9362070892    0.0000303390   -0.0002838498   -0.0011117451
H    1.5125693720   -3.4222405484   -3.3958643645   -0.0000971877    0.0002180296    0.0001974607
H    1.9474532678   -2.5534625341   -1.8698240508    0.0002781934   -0.0010191854   -0.0003136746
H    2.9123559251   -2.3915971346   -3.3140704754    0.0000010284   -0.0000858749   -0.0000637634
C    1.2154900266   -1.3559381446   -3.3257604725    0.0007409920   -0.0016825300   -0.0000627349
N    0.4498495190   -0.5354025200   -3.5375205185    0.0001707213    0.0027258838    0.0039579565
C    1.9108711569    2.2242730628   -0.2309157110    0.0006520318   -0.0004602275    0.0014115357
H    1.7820770169    3.1999724942    0.1581180425   -0.0001990034    0.0000236542   -0.0000467941
H    1.3974219147    2.2706664401   -1.2592198280   -0.0006294061   -0.0005121638   -0.0015380340
H    2.8306568488    1.6120390547   -0.2561355768   -0.0004067486    0.0000205688   -0.0002432264
C    1.0525064722    1.4853741579    0.5628262235    0.0001974607    0.0008273811   -0.0006139795
N    0.2599652573    0.8076069926    1.0217321030   -0.0020995630    0.0003234448   -0.0000550216
18
energy=-0.0032342637 Properties=species:S:1:pos:R:3:forces:R:3 pbc="T T T" Lattice="200.000 0.000 0.000 0.000 200.000 0.000 0.000 0.000 200.000"
C   -1.5670690701   -0.1757727198   -0.7491589319    0.0007440773   -0.0002236860    0.0007553902
H   -1.7018708770    0.9211995183   -1.0105486367   -0.0000611923    0.0000107986   -0.0000745620
H   -1.8375513139   -0.1586615850    0.4045890341   -0.0005445597   -0.0004242321    0.0007250511
H   -2.3642892158   -0.5548109113   -1.4585140869   -0.0009034857   -0.0003686962   -0.0006360910
C   -0.2093427478   -0.6291638721   -0.9786429875   -0.0024250647    0.0010011876    0.0000699340
N    0.9099998279   -0.8668282710   -1.0339561144    0.0026986301    0.0001470671   -0.0000725051
C   -2.6388380857   -0.7956343345    3.7995605258   -0.0002067167   -0.0003049329    0.0005471308
H   -2.7005378603   -0.6233641450    4.9260438579    0.0001624937    0.0001537520   -0.0000848464
H   -2.1321303788    0.1129682100    3.3814573293    0.0000632491    0.0003800091    0.0004144619
H   -2.0028963363   -1.6816672544    3.5214628182   -0.0002077452   -0.0000910171    0.0004746257
C   -3.6981522819   -1.0428392804    2.8031699032    0.0008057838    0.0003177884    0.0011461979
N   -4.4218386265   -1.2464517671    1.9567950748    0.0016501341    0.0003913219   -0.0032390760
C    3.5004558989    1.4890600568   -0.8029225280    0.0004340022   -0.0007044823    0.0002689374
H    2.7630289500    2.3941669968   -0.6816811011   -0.0003573834   -0.0006114084    0.0000812469
H    4.3586698565    1.5906999080   -0.1147214960    0.0005795267    0.0004782252   -0.0002478544
H    2.9589828905    0.5888598267   -0.6350219671   -0.0025459065   -0.0004730830   -0.0003100751
C    3.9955611157    1.5499975833   -2.1077170192   -0.0002761365    0.0001923185    0.0003836086
N    4.2325068497    1.5877172215   -3.2066987099    0.0003913219    0.0001259841   -0.0002020887
18
energy=-0.0028331951 Properties=species:S:1:pos:R:3:forces:R:3 pbc="T T T" Lattice="200.000 0.000 0.000 0.000 200.000 0.000 0.000 0.000 200.000"
C    1.1514962483   -3.3448506640   -2.5283297441    0.0000056564    0.0010716359    0.0013086916
H    0.9954444949   -2.5733268837   -1.7056631996   -0.0004612559    0.0015673446    0.0004622844
H    2.1156589037   -3.3792113359   -2.8489142049   -0.0002432264   -0.0000879317   -0.0004046917
H    0.8838110442   -4.3801017660   -2.1176266998   -0.0001522093   -0.0003203595   -0.0003728100
C    0.2143697999   -3.1544967175   -3.6513014379    0.0001866621    0.0002221433    0.0002740796
N   -0.4362155355   -2.9650681036   -4.5578796455   -0.0000133697   -0.0009590216   -0.0008397224
C   -2.1530190359    0.7559606362    0.6290243265   -0.0001676359    0.0000838180    0.0003193310
H   -1.3976307006    1.0137057888   -0.1824124297    0.0006232355   -0.0013153765    0.0001516951
H   -3.2942621434    0.5305707759    0.2667825843   -0.0003193310    0.0003702389    0.0001763777
H   -1.8781394958   -0.2747917713    1.1710383428    0.0010546666    0.0001614653   -0.0006252923
C   -2.0284363243    1.7412012694    1.5906531008   -0.0004432582   -0.0010294698   -0.0010819203
N   -2.0773458021    2.6996083502    2.2600542818    0.0008428077    0.0006386621    0.0006566598
C    1.7178514888    1.1519032193    0.8587805701    0.0006890557    0.0004622844    0.0003599545
H    1.2058839245    1.7469666207    0.1238866972   -0.0000473083   -0.0008556632    0.0005579294
H    1.2796532966    0.1136986690    0.8462120528   -0.0014315903   -0.0004993083   -0.0007214516
H    2.8556924381    1.0691428822    0.5533506026    0.0002617383    0.0002385984    0.0002951627
C    1.7380962336    1.5127756686    2.2325350032   -0.0003892650   -0.0004838817   -0.0016532195
N    1.7654587560    1.8536125932    3.3227737047    0.0000046280    0.0007353356    0.0011359135
18
energy=-0.0026005105 Properties=species:S:1:pos:R:3:forces:R:3 pbc="T T T" Lattice="200.000 0.000 0.000 0.000 200.000 0.000 0.000 0.000 200.000"
C   -0.2476672096   -4.0734428942   -1.1666907627   -0.0001907759   -0.0000437088    0.0002730512
H   -0.9762893963   -4.8721910027   -1.4724706763   -0.0000257110    0.0001717497    0.0000236542
H    0.7123515690   -4.5989263981   -0.9066815621   -0.0001146712    0.0002987622    0.0000092560
H    0.1252457184   -3.6441652561   -2.0634577414    0.0000935882    0.0002812787   -0.0002308851
C   -0.6454277126   -3.0650100958   -0.2935251785    0.0000179977    0.0004751399   -0.0005851831
N   -0.8804323079   -2.1200640062    0.3386970690    0.0002298566   -0.0000560501    0.0029182023
C   -0.3740863781   -0.8338439782    3.2186159560    0.0002123731    0.0018403958    0.0023417609
H    0.3557418476   -0.0189992891    2.8878567879    0.0002797360    0.0002982480    0.0000812469
H   -0.7518178785   -1.4101449628    2.4034873823   -0.0008088691   -0.0026549213   -0.0051684320
H    0.2539439240   -1.5612019443    3.8099045506    0.0000385666   -0.0002632810   -0.0002128874
C   -1.3758692409   -0.2685986594    4.1141169990    0.0007049965   -0.0000380523   -0.0002946484
N   -2.1977604182    0.2592251773    4.7407473508   -0.0003728100    0.0003100751    0.0003013333
C    2.6867301430    4.1973674425   -2.9801746924   -0.0000550216    0.0003352719   -0.0000329101
H    2.4566433081    5.0969921973   -2.5014643163   -0.0000714767   -0.0001239272    0.0001522093
H    3.3349660764    4.4066334131   -3.7944836026   -0.0001506667   -0.0000550216   -0.0001511809
H    3.3819617338    3.5953071539   -2.2922594865   -0.0001424391    0.0001506667    0.0001136428
C    1.6579356787    3.3965361243   -3.6181430522    0.0001455244   -0.0001357543   -0.0002499112
N    0.9792863730    2.6319407041   -4.1743634720    0.0002103163   -0.0007872718    0.0007142525
18
energy=-0.0025200737 Properties=species:S:1:pos:R:3:forces:R:3 pbc="T T T" Lattice="200.000 0.000 0.000 0.000 200.000 0.000 0.000 0.000 200.000"
C   -0.6392480702   -0.2235474216   -2.0435405702   -0.0007754448    0.0008232673    0.0012145892
H   -1.3210933257    0.5420505957   -2.5925692237    0.0002087736   -0.0000827895    0.0000077133
H   -0.8524327490   -1.1524699426   -1.4754625098    0.0002694516   -0.0000925597   -0.0001203276
H    0.1774044786   -0.5912263386   -2.7829164939    0.0011348850   -0.0015961410   -0.0018331967
C    0.0100612194    0.5900005435   -1.0215757529   -0.0005517588   -0.0005481592   -0.0007276222
N    0.5499919607    1.2464767481   -0.2649605434   -0.0001455244    0.0002910489    0.0012001910
C    2.5289410402   -4.7375859355   -4.7319404092   -0.0000647918    0.0000221115    0.0000071991
H    3.3994330960   -4.3523153188   -4.2127803205   -0.0000046280    0.0001146712   -0.0000169693
H    2.7445627165   -4.7451617825   -5.8057147352   -0.0000529647    0.0000884460   -0.0000879317
H    2.1017236072   -5.6237202843   -4.5261635800   -0.0001162139   -0.0000077133    0.0000138840
C    1.6838907505   -3.5561686770   -4.6162917739   -0.0001414107    0.0000190262   -0.0002375699
N    0.9691617007   -2.6701857829   -4.5821903249   -0.0000673629    0.0010371831    0.0015606597
C   -1.4253732035    2.4082132662    4.9198083769   -0.0003676678    0.0007687599    0.0006021524
H   -2.2372022817    2.4823279017    4.0776285948    0.0008366370   -0.0001033584   -0.0002771649
H   -1.2856514942    1.2958932104    5.0705002191    0.0002077452    0.0001187850   -0.0004982798
H   -0.4954749918    2.6571625309    4.5273347064   -0.0004046917   -0.0003434994   -0.0008350944
C   -1.7354106887    3.3113562858    5.8969246584    0.0001681502   -0.0009528509   -0.0006180932
N   -2.0422815564    3.9993702562    6.7716514316   -0.0001321547    0.0004437724    0.0006458612
18
energy=-0.0024698415 Properties=species:S:1:pos:R:3:forces:R:3 pbc="T T T" Lattice="200.000 0.000 0.000 0.000 200.000 0.000 0.000 0.000 200.000"
C   -2.5909804370    0.2709553033   -3.1861414147   -0.0000164551    0.0002864209   -0.0000025711
H   -3.2285890294    0.8844853802   -3.7099128138   -0.0001059295    0.0004545711    0.0000005142
H   -3.0576122877   -0.6039486143   -2.7706582440    0.0007471626   -0.0005964960    0.0001095290
H   -1.9776477720    0.0139804139   -4.0163856695    0.0001434676   -0.0004350307    0.0004082912
C   -1.9283957220    1.0636264258   -2.1957558271    0.0000874175   -0.0012891512   -0.0004509715
N   -1.4240545062    1.7040899931   -1.3733725187    0.0003589260    0.0009842184    0.0009867895
C    0.6043975768   -4.4013009316   -1.9340714241   -0.0001810057    0.0000401092   -0.0000159408
H    0.3599690998   -5.2273429994   -2.6843670528   -0.0000755904    0.0000575927   -0.0000421661
H    0.4676309092   -4.7816040750   -0.9462476507   -0.0000159408    0.0000365097    0.0001727781
H    1.6436465160   -4.0420106850   -2.0912099212    0.0000606780    0.0001722639    0.0000272537
C   -0.2720636388   -3.2368569724   -2.1339586113   -0.0000082275    0.0006355767   -0.0000282821
N   -0.8147555852   -2.2706070282   -2.4103554018   -0.0005126780    0.0000066849   -0.0002596814
C    1.5385730729    3.4627600034    4.3077914389    0.0002252287   -0.0000786758    0.0000545074
H    0.6216966009    3.6556148282    4.9675918968   -0.0000102844   -0.0000622207   -0.0002134016
H    1.2264615131    3.3156842110    3.1769738808   -0.0004735972    0.0000221115   -0.0004154903
H    2.1917593248    4.3221933858    4.4081397795    0.0000354812   -0.0000935882   -0.0000447372
C    2.2622431519    2.2748661525    4.4852126992   -0.0004396587    0.0003239590   -0.0000509078
N    2.6960890626    1.2290049792    4.6107910594    0.0001810057   -0.0004658839   -0.0002365415
18
energy=-0.0023710641 Properties=species:S:1:pos:R:3:forces:R:3 pbc="T T T" Lattice="200.000 0.000 0.000 0.000 200.000 0.000 0.000 0.000 200.000"
C   -0.3592577562   -3.3978345242    0.0743441032    0.0000359954    0.0001717497   -0.0001156997
H   -0.7650679215   -4.0403631732   -0.7917125988   -0.0000113129   -0.0001249556   -0.0001516951
H   -1.2275016407   -2.9636868173    0.7795300135   -0.0002334562    0.0000267395    0.0002051740
H    0.3086751369   -4.0808684460    0.6222916690    0.0001995176   -0.0001948896    0.0001799772
C    0.2616011267   -2.2296858308   -0.4283106668    0.0000581069   -0.0005018794    0.0001013015
N    0.8192136936   -1.3034105131   -0.8259618344   -0.0005908396    0.0012768099    0.0000971877
C    4.7381181625    2.6011926126   -2.4987060955   -0.0001943754   -0.0001059295    0.0000035995
H    5.5196116456    2.5095849270   -1.7487210809   -0.0000185119   -0.0000766189    0.0000771331
H    4.9611900900    3.4739726799   -3.1295405605   -0.0000606780    0.0002416837    0.0000056564
H    4.9240138419    1.6375068309   -3.0966444154   -0.0001239272   -0.0001496382    0.0001820341
C    3.4786519225    2.9417235483   -1.9361528468    0.0001552946   -0.0002252287   -0.0002684232
N    2.3936491091    3.1078504579   -1.6514757627   -0.0005856973   -0.0005610148    0.0003897793
C   -4.4851431093   -0.7980624304    3.5070246874   -0.0002571103    0.0000349670    0.0000833037
H   -4.2050707472   -1.6919159747    3.9831096946    0.0001146712   -0.0000961593   -0.0001650648
H   -5.5889312518   -0.9402886562    3.0894000418    0.0001321547    0.0000185119   -0.0001002730
H   -4.4838286749   -0.0261274569    4.1282000391    0.0000236542    0.0000905028   -0.0001126143
C   -3.7498150441   -0.4086189794    2.2710155731    0.0004643413   -0.0002180296   -0.0004921092
N   -3.0734608154   -0.2567216744    1.3532353647    0.0008916586    0.0003933788    0.0000797042
18
energy=-0.0023095664 Properties=species:S:1:pos:R:3:forces:R:3 pbc="T T T" Lattice="200.000 0.000 0.000 0.000 200.000 0.000 0.000 0.000 200.000"
C   -1.0875535675   -0.7009880150    0.5834557294   -0.0003640682    0.0013791398    0.0008176109
H   -1.8531821229   -0.1541239908    0.2585576917    0.0000411377   -0.0002015745   -0.0003239590
H   -1.0581383408   -1.1561793558    1.6195494604    0.0001115859   -0.0005039363    0.0003028760
H   -1.0004476678   -1.5786142437   -0.0764265497    0.0003748669   -0.0013236040   -0.0013328600
C    0.0812468461    0.1233458146    0.4448084566   -0.0006875130   -0.0007651604   -0.0003764095
N    1.0747912923    0.7015084892    0.3150822143    0.0003033902    0.0007157952    0.0009626211
C    2.7219595473   -2.6832561673   -5.5072108278    0.0001136428   -0.0001969465   -0.0002206007
H    3.6665744538   -3.1573123040   -5.3878769880   -0.0001974607   -0.0000488510    0.0000411377
H    2.8182087760   -1.5790509706   -5.5970102765   -0.0001064437   -0.0001681502   -0.0000647918
H    2.4317446170   -3.0477925253   -6.4809749454   -0.0000185119    0.0000462799    0.0002242002
C    1.7459016958   -2.8621914122   -4.4747693359    0.0000005142   -0.0000925597   -0.0000041138
N    1.0328466764   -2.8828990597   -3.5839524155   -0.0001748350    0.0012963503    0.0009646780
C   -1.1824888194    1.8070532931    3.8188768737   -0.0002488828    0.0006947121    0.0000647918
H   -1.9137462761    1.0427403237    3.7345724245    0.0006448327    0.0004818248   -0.0005939249
H   -0.4826529472    1.4834459124    4.6342524770   -0.0000473083    0.0002416837    0.0000159408
H   -0.6722111625    1.7834333048    2.9120507211    0.0003224164   -0.0011575107   -0.0009394812
C   -1.8842489757    2.9557548450    4.1479348980    0.0000971877   -0.0006859704    0.0003213879
N   -2.5854841937    3.8056289904    4.4304792519   -0.0001645506    0.0002864209    0.0001378111
18
energy=-0.0023251313 Properties=species:S:1:pos:R:3:forces:R:3 pbc="T T T" Lattice="200.000 0.000 0.000 0.000 200.000 0.000 0.000 0.000 200.000"
C   -0.9147104286   -2.3056878146   -2.2167395886   -0.0013441728    0.0008865164    0.0022466301
H   -0.2426420849   -2.4745744055   -3.0607244445    0.0026816608    0.0008201820   -0.0023839270
H   -1.8451696521   -2.0380416022   -2.6874542804    0.0002895062    0.0000437088   -0.0000632491
H   -1.0696665978   -3.1314137906   -1.6596672810    0.0001192992   -0.0000683913    0.0000771331
C   -0.5362426277   -1.1412163396   -1.4806515530   -0.0002226576   -0.0015292923   -0.0014228486
N    0.0424274184   -0.3132487528   -0.9260735642    0.0001187850    0.0010125005    0.0019334697
C    2.4243136659    0.8978947885   -4.6837835921    0.0002571103   -0.0000966735    0.0002478544
H    3.3880296693    0.6999221259   -5.3295978997   -0.0000550216   -0.0001352400   -0.0000164551
H    2.7247215526    1.2539091294   -3.5217128368    0.0000282821   -0.0002396268   -0.0003460705
H    1.8349828641    1.5626048042   -5.3108420634   -0.0000349670   -0.0001336974   -0.0001198134
C    1.9575558608   -0.4196303760   -4.5035404405   -0.0002581388   -0.0002385984   -0.0000591354
N    1.3819305207   -1.3507454569   -4.2260812775   -0.0014855835    0.0000277679    0.0007811012
C   -0.9106742893    1.1101481952    4.9196210488   -0.0002175153   -0.0001110717   -0.0000951308
H   -1.3932187280    1.5138771566    4.0936769703    0.0002967053   -0.0008263526   -0.0004987941
H   -1.1948924819    0.0012474607    4.9404552670   -0.0000689056    0.0003203595   -0.0006489465
H    0.1311452963    1.3889654380    4.8351166624   -0.0002416837   -0.0000488510   -0.0002468259
C   -1.5559256438    1.6037170970    6.2107593662    0.0001218703    0.0001151854    0.0001876905
N   -1.9903721709    1.9704845276    7.2104939410    0.0000149124    0.0002026029    0.0004283458
18
energy=-0.0022290207 Properties=species:S:1:pos:R:3:forces:R:3 pbc="T T T" Lattice="200.000 0.000 0.000 0.000 200.000 0.000 0.000 0.000 200.000"
C   -4.5830877720    1.0349507055    1.8176186041   -0.0001552946   -0.0001156997    0.0001141570
H   -5.6053587815    1.3148444443    1.9276872169   -0.0003404141   -0.0003990352   -0.0000267395
H   -4.0882086794    1.7623658930    1.1801701274    0.0014886688   -0.0000961593    0.0007080819
H   -4.0854039733    1.0323796037    2.8116457038    0.0011508259    0.0001568373   -0.0006911126
C   -4.3458770293   -0.3609632642    1.4546982296    0.0005039363   -0.0001871763   -0.0002756223
N   -4.2731360161   -1.4050943795    1.0008434526   -0.0014321046    0.0000509078   -0.0003661251
C    2.8144264595   -2.4276908389   -2.5983245681    0.0003902935    0.0001990034   -0.0005409601
H    1.8933294577   -2.5233404483   -2.9994524252   -0.0003152173   -0.0000149124   -0.0002447690
H    2.8417593732   -2.9523781913   -1.5931758354    0.0002411695   -0.0004761683   -0.0001542662
H    3.5667171224   -2.9519778905   -3.1622055735   -0.0000416519    0.0000287964    0.0002082594
C    3.2564218147   -1.0865202292   -2.4343066019   -0.0010135289   -0.0015061523    0.0001738066
N    3.3472572207    0.0694689183   -2.2242205798   -0.0015606597    0.0007276222    0.0026286961
C    2.0226885334    0.3851302250    0.5409266067   -0.0004442867   -0.0002041456    0.0026862888
H    1.5773454943   -0.5014323530    1.0561099169    0.0004031490    0.0014948395    0.0000683913
H    3.1400933711    0.5425556734    0.7743622334   -0.0001054152    0.0002504255   -0.0006967690
H    1.9589278258    0.4324873600   -0.5697725121    0.0024019248    0.0003933788   -0.0036669076
C    1.1976564715    1.5315754575    1.1288110015    0.0009245688   -0.0013374880   -0.0005229624
N    0.5290023554    2.4041145664    1.3423886476   -0.0020969919    0.0010356404    0.0005995813
18
energy=-0.0022489394 Properties=species:S:1:pos:R:3:forces:R:3 pbc="T T T" Lattice="200.000 0.000 0.000 0.000 200.000 0.000 0.000 0.000 200.000"
C   -7.3336139154    0.4408413828   -0.3321654096   -0.0000437088   -0.0004304027   -0.0002689374
H   -7.6943449676    0.7984349930    0.6010970273    0.0000575927   -0.0000663345    0.0000519363
H   -8.2196407511    0.1159494569   -0.9384603373    0.0000087418   -0.0000668487    0.0000761047
H   -6.8049937275    1.2768685293   -0.7082989934   -0.0000755904    0.0001254698    0.0001054152
C   -6.6539277248   -0.6933372730   -0.1153985380   -0.0004813105    0.0007692741    0.0005183344
N   -6.0377296468   -1.5099374880    0.3783697606    0.0012726962   -0.0002391126   -0.0006926552
C    5.2543814008    1.2361723616    0.1680740433    0.0006093515    0.0009441092    0.0005363322
H    4.3057288463    0.7175294684   -0.1165551443   -0.0016516768   -0.0024749441   -0.0008037269
H    5.9463658797    0.6643524425    0.8482767375   -0.0001419249    0.0000704482   -0.0000637634
H    5.8992102123    1.3578107098   -0.7618863484   -0.0001069579    0.0000210830    0.0000005142
C    4.8281794693    2.4320000750    0.7379603246    0.0006648873   -0.0010284413   -0.0005656427
N    4.5947783301    3.4997591296    1.0888325371   -0.0003620114    0.0009122275    0.0003800091
C    0.6641137517   -2.3566414524   -0.5790477158    0.0006330056    0.0002751081   -0.0003306439
H    0.2019437602   -2.3277775524    0.4918311174   -0.0003054471   -0.0000087418    0.0003758953
H    0.7640984775   -3.5505847383   -0.7679508605   -0.0000298248   -0.0000761047    0.0000524505
H   -0.0491504772   -1.9641211842   -1.2877690082   -0.0001995176    0.0000534789   -0.0000426803
C    1.9376084095   -1.7285091455   -0.6337122688   -0.0008803458   -0.0005178202    0.0001383254
N    2.9670155840   -1.2062900849   -0.6305060709    0.0010335835    0.0017360090    0.0005322184
18
energy=-0.0022417828 Properties=species:S:1:pos:R:3:forces:R:3 pbc="T T T" Lattice="200.000 0.000 0.000 0.000 200.000 0.000 0.000 0.000 200.000"
C   -0.0894868345   -2.4789237038    0.0454176368    0.0006196359   -0.0001820341   -0.0001347258
H   -0.8110604597   -1.6525541995   -0.2158363547   -0.0004247463    0.0003836086    0.0000066849
H   -0.1148753661   -2.3175804900    1.1897130577   -0.0000848464    0.0001732924    0.0001352400
H   -0.4922127561   -3.3771094536   -0.4566409573    0.0000524505    0.0000092560   -0.0001470671
C    1.1834473554   -2.3214349192   -0.6235322724   -0.0013647417   -0.0002499112    0.0006155221
N    2.1654230647   -2.6223241035   -1.1395664464    0.0022589714    0.0012233310   -0.0003738384
C   -6.7382320741    4.1189370192    3.7281318755    0.0001244414   -0.0000673629   -0.0000205688
H   -6.1280602623    5.0039760515    3.9513839189   -0.0000581069   -0.0000215973   -0.0000869033
H   -7.1882807990    3.6052984760    4.5905836370    0.0000287964   -0.0000812469   -0.0000786758
H   -7.4588983433    4.6588694202    3.0707510527    0.0001162139   -0.0000411377   -0.0000277679
C   -6.1572117380    3.0062457377    3.0961003530   -0.0005219340    0.0001249556    0.0001295836
N   -5.9187035819    1.9854808074    2.6450365619    0.0008433219   -0.0002483686   -0.0001105574
C    5.0431044054   -1.7571537666   -2.0979377280    0.0013158907    0.0003836086   -0.0008458930
H    5.8835618831   -1.8647754334   -1.3599522377    0.0001768919    0.0000977019    0.0000601638
H    4.9057122185   -2.3812469446   -2.9403203121   -0.0003249875    0.0000334243    0.0002303709
H    4.1377961894   -1.6832291199   -1.4855556996   -0.0030842956   -0.0015195221    0.0006268350
C    5.2512235373   -0.4650221355   -2.7445347411    0.0002370557   -0.0006803139    0.0002745938
N    5.5684195998    0.5494300843   -3.1654991544    0.0000899886    0.0006623162   -0.0002509397
18
energy=-0.0020870045 Properties=species:S:1:pos:R:3:forces:R:3 pbc="T T T" Lattice="200.000 0.000 0.000 0.000 200.000 0.000 0.000 0.000 200.000"
C    0.1420856619    1.0608141638   -0.3078120922    0.0004741115   -0.0005558725   -0.0004879954
H    0.1575647861   -0.0475570024   -0.0853898997   -0.0007502480   -0.0003291012    0.0002062025
H   -0.9098845676    1.4901494923   -0.3477650831    0.0001342116   -0.0004046917   -0.0000627349
H    0.5161897258    1.6699476209    0.3572684775    0.0001239272    0.0000843322   -0.0003023618
C    0.6360067851    1.3486053396   -1.6136141114   -0.0004746257    0.0003614971    0.0008124687
N    1.1768364808    1.7800331685   -2.5341363572    0.0007091103    0.0004520000   -0.0005533014
C    0.8695105756   -3.0933841798   -2.1170600254    0.0004566280   -0.0004813105    0.0001223845
H    0.3607682278   -3.0413312274   -1.1359389873   -0.0003650967    0.0012670397    0.0006340341
H    0.1802423589   -3.7847256341   -2.7187694730   -0.0000498794   -0.0001203276   -0.0000910171
H    0.7365808899   -2.0374600216   -2.4567558763   -0.0004360591    0.0000334243    0.0008762320
C    2.3001162120   -3.2336385423   -2.0056521641   -0.0004154903    0.0001547804   -0.0000365097
N    3.4709108740   -3.1809772558   -2.1648228802    0.0002643094    0.0001912901   -0.0003640682
C   -2.3050640742    0.6503448616    3.0001776065   -0.0004016063    0.0000015427    0.0001635222
H   -3.1048089135    0.1412338011    2.4078022921    0.0007523048   -0.0000694198   -0.0003666393
H   -1.7566274715   -0.1075878318    3.6151012079    0.0001563231   -0.0001588942   -0.0004741115
H   -1.6462588684    1.1561420485    2.4564623406   -0.0002473401   -0.0008762320   -0.0003327008
C   -2.8527232383    1.8999287559    3.6018779593    0.0000236542   -0.0002997907    0.0001676359
N   -3.2168672023    2.9015427445    4.0700496241    0.0000426803    0.0007476769    0.0000915313
18
energy=-0.0021456450 Properties=species:S:1:pos:R:3:forces:R:3 pbc="T T T" Lattice="200.000 0.000 0.000 0.000 200.000 0.000 0.000 0.000 200.000"
C    0.2213935867    3.8927659018    0.9835285400    0.0001383254   -0.0000051422   -0.0000740478
H    1.0135326403    4.7732008877    1.1311219107   -0.0000349670   -0.0001748350   -0.0000601638
H   -0.3780107150    3.7053658438    1.8089551852   -0.0002478544   -0.0001804915    0.0000982161
H   -0.2648397834    4.1378072654    0.0669112116   -0.0001290694   -0.0001434676   -0.0000869033
C    0.7960052969    2.6208007296    0.5889643832   -0.0008834311    0.0005579294    0.0003152173
N    1.1952641051    1.6536023537    0.0771240201    0.0019555812   -0.0013158907    0.0002941342
C    4.3291385776   -0.4790143321   -0.1815912106    0.0009744482   -0.0010047872   -0.0001660933
H    3.3229681926   -0.1123721557    0.3278135711   -0.0019113582    0.0017483503   -0.0003645825
H    4.3162864571   -0.1824170416   -1.2903351729   -0.0003866939    0.0001414107    0.0002303709
H    5.0462389546   -0.0806663089    0.5109091166   -0.0001825483   -0.0000514221    0.0000251968
C    4.3483154011   -1.8832156591   -0.0079893099    0.0001645506    0.0009189123   -0.0001563231
N    4.3038043577   -3.0462298278    0.0278508511   -0.0001547804   -0.0007271080    0.0000339386
C   -5.1208113116   -2.0528913362   -1.2710249431   -0.0000313675   -0.0000956450    0.0001362685
H   -4.7176173372   -1.6892311212   -2.2788259892   -0.0001064437   -0.0000138840    0.0000097702
H   -6.2016444620   -2.4509272046   -1.3388448699    0.0000416519    0.0000251968    0.0000725051
H   -4.6853158768   -3.1066171831   -0.9790052930   -0.0000344528   -0.0000550216    0.0000190262
C   -5.0197715367   -0.9113102055   -0.3651913388   -0.0002118589    0.0002956769    0.0002406553
N   -4.9335124831    0.0153803997    0.2590995141    0.0010407826    0.0000802184   -0.0005656427
18
energy=-0.0021117396 Properties=species:S:1:pos:R:3:forces:R:3 pbc="T T T" Lattice="200.000 0.000 0.000 0.000 200.000 0.000 0.000 0.000 200.000"
C    0.1111756508    3.3233224055   -1.3161536693   -0.0001588942    0.0004586848    0.0002072309
H   -0.6760722012    3.5133030977   -2.2092918086   -0.0003537838    0.0003702389   -0.0002416837
H   -0.5748150599    2.6616589177   -0.6934258766    0.0001984892   -0.0002170011    0.0002067167
H    0.9265947095    2.7840621963   -1.8798787119    0.0012521273   -0.0021689828    0.0006330056
C    0.5968507990    4.3728807042   -0.5445031536   -0.0000426803   -0.0006170648   -0.0001840910
N    1.0933710780    5.2045082269    0.0383291985   -0.0002108305    0.0003429852    0.0002051740
C    3.2939564309   -1.6785209240   -0.3645145816    0.0002432264    0.0001450102   -0.0000000000
H    3.0547239638   -2.5623103530   -0.9173680333   -0.0002211149   -0.0000000000   -0.0000041138
H    3.3693426353   -1.8902790565    0.7599188348   -0.0002535108    0.0000385666   -0.0001974607
H    4.3233327580   -1.5981677518   -0.6843402701   -0.0004355449    0.0000822753    0.0000169693
C    2.4721293710   -0.6300403585   -0.7145524692   -0.0004777110   -0.0007780159    0.0001861479
N    1.7693609105    0.2442156500   -0.9250395133   -0.0001650648    0.0020429987   -0.0009348532
C   -4.2002824823   -3.2800052748    1.9275274503   -0.0001270125   -0.0001228987    0.0000431945
H   -4.5068934119   -4.2188096003    2.3329382380    0.0001439818    0.0000586212   -0.0000853606
H   -4.9668065782   -2.8707795297    1.4236669317    0.0000879317    0.0000529647   -0.0000611923
H   -3.9105653811   -2.6869710953    2.9284469016   -0.0000344528   -0.0000591354   -0.0001393538
C   -2.9672682066   -3.5711712701    1.2761897421   -0.0006540887    0.0001167281    0.0000215973
N   -2.0550820516   -3.6996267022    0.5840324741    0.0012089328    0.0002524823    0.0003270443
18
energy=-0.0020384321 Properties=species:S:1:pos:R:3:forces:R:3 pbc="T T T" Lattice="200.000 0.000 0.000 0.000 200.000 0.000 0.000 0.000 200.000"
C   -3.7325557026   -3.9144133780    1.6833653250   -0.0004787394    0.0001969465   -0.0008006416
H   -4.6334611742   -4.5699507518    1.6918621291    0.0000488510    0.0001738066    0.0003434994
H   -2.8183817900   -4.6046974499    1.7143919670    0.0000905028    0.0003347577   -0.0003645825
H   -3.5309314635   -3.4533693343    0.6843379000    0.0005970102    0.0002823071    0.0001650648
C   -3.8083121901   -2.8495363067    2.6557942557   -0.0000097702   -0.0002005461   -0.0002823071
N   -3.8451773819   -2.0387380783    3.4527189887    0.0002432264   -0.0000642776    0.0005748987
C    3.9462846972    3.8200905977   -0.8092139482    0.0003738384    0.0001013015    0.0000503936
H    4.4787590780    4.2392053092    0.1202294347   -0.0001506667   -0.0001378111   -0.0000447372
H    3.2228812931    4.7028197809   -1.2529274703   -0.0000169693   -0.0001480956    0.0001275267
H    4.6608408035    3.6261250921   -1.5553691444   -0.0001573515   -0.0000704482    0.0001671217
C    3.0511461365    2.8393315312   -0.3034497657    0.0002103163   -0.0002180296   -0.0000812469