
                                 *****************
                                 * O   R   C   A *
                                 *****************

           --- An Ab Initio, DFT and Semiempirical electronic structure package ---

                  #######################################################
                  #                        -***-                        #
                  #          Department of theory and spectroscopy      #
                  #               Directorship: Frank Neese             #
                  #        Max Planck Institute fuer Kohlenforschung    #
                  #                Kaiser Wilhelm Platz 1               #
                  #                 D-45470 Muelheim/Ruhr               #
                  #                      Germany                        #
                  #                                                     #
                  #                  All rights reserved                #
                  #                        -***-                        #
                  #######################################################


                         Program Version 4.2.0 -  RELEASE  -


 With contributions from (in alphabetic order):
   Daniel Aravena         : Magnetic Suceptibility
   Michael Atanasov       : Ab Initio Ligand Field Theory (pilot matlab implementation)
   Alexander A. Auer      : GIAO ZORA, VPT2
   Ute Becker             : Parallelization
   Giovanni Bistoni       : ED, misc. LED, open-shell LED, HFLED
   Martin Brehm           : Molecular dynamics
   Dmytro Bykov           : SCF Hessian
   Vijay G. Chilkuri      : MRCI spin determinant printing, contributions to CSF-ICE
   Dipayan Datta          : RHF DLPNO-CCSD density
   Achintya Kumar Dutta   : EOM-CC, STEOM-CC
   Dmitry Ganyushin       : Spin-Orbit,Spin-Spin,Magnetic field MRCI
   Miquel Garcia          : C-PCM Hessian, Gaussian charge scheme
   Yang Guo               : DLPNO-NEVPT2, CIM, IAO-localization
   Andreas Hansen         : Spin unrestricted coupled pair/coupled cluster methods
   Benjamin Helmich-Paris : CASSCF linear response (MC-RPA)
   Lee Huntington         : MR-EOM, pCC
   Robert Izsak           : Overlap fitted RIJCOSX, COSX-SCS-MP3, EOM
   Christian Kollmar      : KDIIS, OOCD, Brueckner-CCSD(T), CCSD density
   Simone Kossmann        : Meta GGA functionals, TD-DFT gradient, OOMP2, MP2 Hessian
   Martin Krupicka        : AUTO-CI
   Lucas Lang             : DCDCAS
   Dagmar Lenk            : GEPOL surface, SMD
   Dimitrios Liakos       : Extrapolation schemes; Compound Job, initial MDCI parallelization
   Dimitrios Manganas     : Further ROCIS development; embedding schemes
   Dimitrios Pantazis     : SARC Basis sets
   Taras Petrenko         : DFT Hessian,TD-DFT gradient, ASA, ECA, R-Raman, ABS, FL, XAS/XES, NRVS
   Peter Pinski           : DLPNO-MP2, DLPNO-MP2 Gradient
   Christoph Reimann      : Effective Core Potentials
   Marius Retegan         : Local ZFS, SOC
   Christoph Riplinger    : Optimizer, TS searches, QM/MM, DLPNO-CCSD(T), (RO)-DLPNO pert. Triples
   Tobias Risthaus        : Range-separated hybrids, TD-DFT gradient, RPA, STAB
   Michael Roemelt        : Original ROCIS implementation
   Masaaki Saitow         : Open-shell DLPNO-CCSD energy and density
   Barbara Sandhoefer     : DKH picture change effects
   Avijit Sen             : IP-ROCIS
   Kantharuban Sivalingam : CASSCF convergence, NEVPT2, FIC-MRCI
   Bernardo de Souza      : ESD, SOC TD-DFT
   Georgi Stoychev        : AutoAux, RI-MP2 NMR
   Willem Van den Heuvel  : Paramagnetic NMR
   Boris Wezisla          : Elementary symmetry handling
   Frank Wennmohs         : Technical directorship


 We gratefully acknowledge several colleagues who have allowed us to
 interface, adapt or use parts of their codes:
   Stefan Grimme, W. Hujo, H. Kruse,             : VdW corrections, initial TS optimization,
                  C. Bannwarth                     DFT functionals, gCP, sTDA/sTD-DF
   Ed Valeev, F. Pavosevic, A. Kumar             : LibInt (2-el integral package), F12 methods
   Garnet Chan, S. Sharma, J. Yang, R. Olivares  : DMRG
   Ulf Ekstrom                                   : XCFun DFT Library
   Mihaly Kallay                                 : mrcc  (arbitrary order and MRCC methods)
   Andreas Klamt, Michael Diedenhofen            : otool_cosmo (COSMO solvation model)
   Jiri Pittner, Ondrej Demel                    : Mk-CCSD
   Frank Weinhold                                : gennbo (NPA and NBO analysis)
   Christopher J. Cramer and Donald G. Truhlar   : smd solvation model
   Lars Goerigk                                  : TD-DFT with DH, B97 family of functionals
   V. Asgeirsson, H. Jonsson                     : NEB implementation
   FAccTs GmbH                                   : IRC, NEB, NEB-TS, Multilevel, MM, QM/MM, CI optimization
   S Lehtola, MJT Oliveira, MAL Marques          : LibXC Library


 Your calculation uses the libint2 library for the computation of 2-el integrals
 For citations please refer to: http://libint.valeyev.net

 Your ORCA version has been built with support for libXC version: 4.2.3
 For citations please refer to: https://tddft.org/programs/libxc/

 This ORCA versions uses:
   CBLAS   interface :  Fast vector & matrix operations
   LAPACKE interface :  Fast linear algebra routines
   SCALAPACK package :  Parallel linear algebra routines


----- Orbital basis set information -----
Your calculation utilizes the basis: def2-TZVP
   F. Weigend and R. Ahlrichs, Phys. Chem. Chem. Phys. 7, 3297 (2005).

================================================================================
                                        WARNINGS
                       Please study these warnings very carefully!
================================================================================


WARNING: The frozen-core approximation for MP2-gradient calculations is turned on by default.

INFO   : the flag for use of LIBINT has been found!

================================================================================
                                       INPUT FILE
================================================================================
NAME = orcacalc.inp
|  1> ! engrad MP2 def2-TZVP TightSCF FrozenCore 
|  2> %pal nprocs 24 end
|  3> 
|  4> %maxcore 8000
|  5> 
|  6> %scf    ConvForced true end 
|  7> *xyz 0 1 
|  8> C   -0.24007047757808783 -0.9617002254008579 -3.55291394782435
|  9> H   -0.2071111730369392 -0.21087039957818443 -2.8028608884433432
| 10> H   -1.2143826570901526 -0.9967703228308037 -4.018684217742461
| 11> H   0.5965177573360751 -0.7830092331001495 -4.271759546241007
| 12> C   0.14872665205090624 -2.2444202407522758 -2.9686617007670755
| 13> N   0.3162643935387644 -3.106692924573786 -2.189332733023669
| 14> C   -3.0029042157785804 -3.7885618231841534 1.1364172525798713
| 15> H   -1.9704692620442004 -4.215043230525114 1.3775961571646447
| 16> H   -3.2923924816401398 -4.10504925458691 0.11454832080822235
| 17> H   -3.7073066688780214 -4.128454713111134 1.9186621740890246
| 18> C   -3.1173105258618814 -2.291618226507998 1.1712861426289023
| 19> N   -3.3052689551183065 -1.1674459538815587 1.154592037183444
| 20> C   -0.6801685900231303 0.2866172683305287 3.0283512617959496
| 21> H   -1.3990307541700235 0.0756347617469753 3.8511083293267308
| 22> H   0.30568749731998657 -0.11681410620037845 3.221740133650508
| 23> H   -0.9716038132749487 -0.38324822005269377 2.2458039254236777
| 24> C   -0.6738688377507608 1.71938689955278 2.6168893455571043
| 25> N   -0.6789749248513902 2.8404318360296785 2.29308495226891
| 26> C   3.1785244095366494 -3.5689363203941897 -0.36688782035742795
| 27> H   4.147871562631824 -3.9495313010488085 -0.17348559047012677
| 28> H   3.2762636818843514 -2.7297923796159944 -1.023694278289026
| 29> H   2.6438067729861254 -4.342713186433111 -0.9010780585857029
| 30> C   2.5241515645849444 -3.3569534927193994 0.9581251818056847
| 31> N   2.2355525824255644 -3.199019467899855 2.041435158042342
| 32> C   1.192186622428173 3.239523846009398 -0.2508260310833804
| 33> H   0.7246543783421304 4.095439067644077 -0.6540834738219283
| 34> H   1.8073458550167758 3.685201795829357 0.5450009798394928
| 35> H   0.5494075723243738 2.566112660489411 0.22544842780862837
| 36> C   1.8514550786450723 2.5665753102437505 -1.4254520785732612
| 37> N   2.5036265278421315 2.09134024757191 -2.2722682969385835
| 38> C   -2.7825798132882755 1.4505535146608433 -0.5692387377358659
| 39> H   -2.8716682717626387 2.0745623466176695 0.32804739584902864
| 40> H   -3.556478810941 0.7561059391612686 -0.5122448708442768
| 41> H   -2.876463338479253 2.0386239049073303 -1.5024863359059164
| 42> C   -1.5026790630981472 0.6792440789752069 -0.6395335304157719
| 43> N   -0.4730268800107675 0.16572342174548083 -0.8346117092052697
| 44> *
| 45> 
| 46>                          ****END OF INPUT****
================================================================================

                     *******************************
                     * Energy+Gradient Calculation *
                     *******************************

---------------------------------
CARTESIAN COORDINATES (ANGSTROEM)
---------------------------------
  C     -0.240070   -0.961700   -3.552914
  H     -0.207111   -0.210870   -2.802861
  H     -1.214383   -0.996770   -4.018684
  H      0.596518   -0.783009   -4.271760
  C      0.148727   -2.244420   -2.968662
  N      0.316264   -3.106693   -2.189333
  C     -3.002904   -3.788562    1.136417
  H     -1.970469   -4.215043    1.377596
  H     -3.292392   -4.105049    0.114548
  H     -3.707307   -4.128455    1.918662
  C     -3.117311   -2.291618    1.171286
  N     -3.305269   -1.167446    1.154592
  C     -0.680169    0.286617    3.028351
  H     -1.399031    0.075635    3.851108
  H      0.305687   -0.116814    3.221740
  H     -0.971604   -0.383248    2.245804
  C     -0.673869    1.719387    2.616889
  N     -0.678975    2.840432    2.293085
  C      3.178524   -3.568936   -0.366888
  H      4.147872   -3.949531   -0.173486
  H      3.276264   -2.729792   -1.023694
  H      2.643807   -4.342713   -0.901078
  C      2.524152   -3.356953    0.958125
  N      2.235553   -3.199019    2.041435
  C      1.192187    3.239524   -0.250826
  H      0.724654    4.095439   -0.654083
  H      1.807346    3.685202    0.545001
  H      0.549408    2.566113    0.225448
  C      1.851455    2.566575   -1.425452
  N      2.503627    2.091340   -2.272268
  C     -2.782580    1.450554   -0.569239
  H     -2.871668    2.074562    0.328047
  H     -3.556479    0.756106   -0.512245
  H     -2.876463    2.038624   -1.502486
  C     -1.502679    0.679244   -0.639534
  N     -0.473027    0.165723   -0.834612

----------------------------
CARTESIAN COORDINATES (A.U.)
----------------------------
  NO LB      ZA    FRAG     MASS         X           Y           Z
   0 C     6.0000    0    12.011   -0.453667   -1.817350   -6.714034
   1 H     1.0000    0     1.008   -0.391383   -0.398487   -5.296639
   2 H     1.0000    0     1.008   -2.294851   -1.883623   -7.594213
   3 H     1.0000    0     1.008    1.127255   -1.479673   -8.072456
   4 C     6.0000    0    12.011    0.281053   -4.241340   -5.609958
   5 N     7.0000    0    14.007    0.597653   -5.870799   -4.137239
   6 C     6.0000    0    12.011   -5.674667   -7.159344    2.147517
   7 H     1.0000    0     1.008   -3.723647   -7.965277    2.603279
   8 H     1.0000    0     1.008   -6.221720   -7.757419    0.216465
   9 H     1.0000    0     1.008   -7.005794   -7.801649    3.625746
  10 C     6.0000    0    12.011   -5.890863   -4.330531    2.213410
  11 N     7.0000    0    14.007   -6.246053   -2.206153    2.181863
  12 C     6.0000    0    12.011   -1.285332    0.541628    5.722755
  13 H     1.0000    0     1.008   -2.643785    0.142929    7.277540
  14 H     1.0000    0     1.008    0.577666   -0.220747    6.088207
  15 H     1.0000    0     1.008   -1.836065   -0.724234    4.243954
  16 C     6.0000    0    12.011   -1.273428    3.249170    4.945204
  17 N     7.0000    0    14.007   -1.283077    5.367638    4.333303
  18 C     6.0000    0    12.011    6.006541   -6.744312   -0.693318
  19 H     1.0000    0     1.008    7.838341   -7.463533   -0.327840
  20 H     1.0000    0     1.008    6.191241   -5.158560   -1.934502
  21 H     1.0000    0     1.008    4.996071   -8.206539   -1.702791
  22 C     6.0000    0    12.011    4.769955   -6.343723    1.810594
  23 N     7.0000    0    14.007    4.224582   -6.045271    3.857753
  24 C     6.0000    0    12.011    2.252906    6.121813   -0.473993
  25 H     1.0000    0     1.008    1.369398    7.739258   -1.236039
  26 H     1.0000    0     1.008    3.415389    6.964022    1.029903
  27 H     1.0000    0     1.008    1.038230    4.849250    0.426036
  28 C     6.0000    0    12.011    3.498743    4.850124   -2.693714
  29 N     7.0000    0    14.007    4.731168    3.952060   -4.293965
  30 C     6.0000    0    12.011   -5.258314    2.741149   -1.075705
  31 H     1.0000    0     1.008   -5.426667    3.920355    0.619920
  32 H     1.0000    0     1.008   -6.720771    1.428833   -0.968003
  33 H     1.0000    0     1.008   -5.435728    3.852441   -2.839288
  34 C     6.0000    0    12.011   -2.839652    1.283585   -1.208543
  35 N     7.0000    0    14.007   -0.893891    0.313172   -1.577188

--------------------------------
INTERNAL COORDINATES (ANGSTROEM)
--------------------------------
 C      0   0   0     0.000000000000     0.00000000     0.00000000
 H      1   0   0     1.061796277535     0.00000000     0.00000000
 H      1   2   0     1.080488814944   110.82121501     0.00000000
 H      1   2   3     1.117385045492   108.54945469   125.61870498
 C      1   2   3     1.462150653655   109.25871879   235.42084293
 N      5   1   2     1.174281361536   161.31871924    28.21390824
 C      6   5   1     4.747887784975   118.07280388    36.96847039
 H      7   6   5     1.142792889598    64.52303552   200.64111687
 H      7   6   5     1.108234570850    65.02287680    72.47827954
 H      7   6   5     1.106172278527   169.94683289   156.01617122
 C      7   6   5     1.501713945767    85.77716344   321.93222401
 N     11   7   6     1.139899277492   174.43824375   112.29506951
 C     12  11   7     3.537856047500   105.97542055   169.23375554
 H     13  12  11     1.112746881055    80.46355895   272.76263516
 H     13  12  11     1.082621057741   128.10714929    24.17594788
 H     13  12  11     1.070530053545    32.18515884    50.08594960
 C     13  12  11     1.490694271655   104.59456192   161.42161198
 N     17  13  12     1.166883501828   179.49936242    29.91809772
 C      6   5   1     3.424544760382   124.85805866   267.41006756
 H     19   6   5     1.059193497449   155.58599633   270.81698265
 H     19   6   5     1.070098239361    69.13639171   358.73347480
 H     19   6   5     1.081671299367    54.58921692   226.75771647
 C     19   6   5     1.492916606961    94.97976632   117.11696286
 N     23  19   6     1.132162988846   168.74699653   188.66050701
 C     18  17  13     3.183080749787   109.85585692   241.31816500
 H     25  18  17     1.055364311984    98.43230113   154.15432840
 H     25  18  17     1.100177416469    78.54328983   254.03966571
 H     25  18  17     1.045698279729    36.28458377    32.66288298
 C     25  18  17     1.505736026199   145.56835936    21.45503198
 N     29  25  18     1.169732307679   172.06808257   240.45980664
 C     12  11   7     3.177847966287   142.49356082   263.64228398
 H     31  12  11     1.096561070491    90.66295557   204.62475183
 H     31  12  11     1.041357476829    45.46800384    92.69515277
 H     31  12  11     1.107064577916   151.75723834    58.94030172
 C     31  12  11     1.495996501932    75.01643670   318.98118462
 N     35  31  12     1.167022955806   171.71665339   158.10606459

---------------------------
INTERNAL COORDINATES (A.U.)
---------------------------
 C      0   0   0     0.000000000000     0.00000000     0.00000000
 H      1   0   0     2.006504174559     0.00000000     0.00000000
 H      1   2   0     2.041827951009   110.82121501     0.00000000
 H      1   2   3     2.111551722119   108.54945469   125.61870498
 C      1   2   3     2.763064301941   109.25871879   235.42084293
 N      5   1   2     2.219070177472   161.31871924    28.21390824
 C      6   5   1     8.972207628192   118.07280388    36.96847039
 H      7   6   5     2.159565589134    64.52303552   200.64111687
 H      7   6   5     2.094259831051    65.02287680    72.47827954
 H      7   6   5     2.090362663352   169.94683289   156.01617122
 C      7   6   5     2.837828088989    85.77716344   321.93222401
 N     11   7   6     2.154097454715   174.43824375   112.29506951
 C     12  11   7     6.685579031012   105.97542055   169.23375554
 H     13  12  11     2.102786861569    80.46355895   272.76263516
 H     13  12  11     2.045857305947   128.10714929    24.17594788
 H     13  12  11     2.023008619331    32.18515884    50.08594960
 C     13  12  11     2.817003922834   104.59456192   161.42161198
 N     17  13  12     2.205090248646   179.49936242    29.91809772
 C      6   5   1     6.471451730478   124.85805866   267.41006756
 H     19   6   5     2.001585633009   155.58599633   270.81698265
 H     19   6   5     2.022192608784    69.13639171   358.73347480
 H     19   6   5     2.044062522726    54.58921692   226.75771647
 C     19   6   5     2.821203527940    94.97976632   117.11696286
 N     23  19   6     2.139477987881   168.74699653   188.66050701
 C     18  17  13     6.015150879255   109.85585692   241.31816500
 H     25  18  17     1.994349521165    98.43230113   154.15432840
 H     25  18  17     2.079034015852    78.54328983   254.03966571
 H     25  18  17     1.976083367401    36.28458377    32.66288298
 C     25  18  17     2.845428719495   145.56835936    21.45503198
 N     29  25  18     2.210473711512   172.06808257   240.45980664
 C     12  11   7     6.005262351521   142.49356082   263.64228398
 H     31  12  11     2.072200112348    90.66295557   204.62475183
 H     31  12  11     1.967880438719    45.46800384    92.69515277
 H     31  12  11     2.092048864827   151.75723834    58.94030172
 C     31  12  11     2.827023685956    75.01643670   318.98118462
 N     35  31  12     2.205353778473   171.71665339   158.10606459

---------------------
BASIS SET INFORMATION
---------------------
There are 3 groups of distinct atoms

 Group   1 Type C   : 11s6p2d1f contracted to 5s3p2d1f pattern {62111/411/11/1}
 Group   2 Type H   : 5s1p contracted to 3s1p pattern {311/1}
 Group   3 Type N   : 11s6p2d1f contracted to 5s3p2d1f pattern {62111/411/11/1}

Atom   0C    basis set group =>   1
Atom   1H    basis set group =>   2
Atom   2H    basis set group =>   2
Atom   3H    basis set group =>   2
Atom   4C    basis set group =>   1
Atom   5N    basis set group =>   3
Atom   6C    basis set group =>   1
Atom   7H    basis set group =>   2
Atom   8H    basis set group =>   2
Atom   9H    basis set group =>   2
Atom  10C    basis set group =>   1
Atom  11N    basis set group =>   3
Atom  12C    basis set group =>   1
Atom  13H    basis set group =>   2
Atom  14H    basis set group =>   2
Atom  15H    basis set group =>   2
Atom  16C    basis set group =>   1
Atom  17N    basis set group =>   3
Atom  18C    basis set group =>   1
Atom  19H    basis set group =>   2
Atom  20H    basis set group =>   2
Atom  21H    basis set group =>   2
Atom  22C    basis set group =>   1
Atom  23N    basis set group =>   3
Atom  24C    basis set group =>   1
Atom  25H    basis set group =>   2
Atom  26H    basis set group =>   2
Atom  27H    basis set group =>   2
Atom  28C    basis set group =>   1
Atom  29N    basis set group =>   3
Atom  30C    basis set group =>   1
Atom  31H    basis set group =>   2
Atom  32H    basis set group =>   2
Atom  33H    basis set group =>   2
Atom  34C    basis set group =>   1
Atom  35N    basis set group =>   3

Checking for AutoStart:
The File: orcacalc.gbw exists
Trying to determine its content:
     ... Fine, the file contains calculation information
     ... Fine, the calculation information was read
     ... Fine, the file contains a basis set
     ... Fine, the basis set was read
     ... Fine, the file contains a geometry
     ... Fine, the geometry was read
     ... Fine, the file contains a set of orbitals
     ... Fine, the orbitals can be read
     => possible old guess file was deleted
     => GBW file was renamed to GES file
     => GES file is set as startup file
     => Guess is set to MORead
     ... now leaving AutoStart



           ************************************************************
           *        Program running with 24 parallel MPI-processes    *
           *              working on a common directory               *
           ************************************************************
------------------------------------------------------------------------------
                           ORCA GTO INTEGRAL CALCULATION
------------------------------------------------------------------------------

                         BASIS SET STATISTICS AND STARTUP INFO

 # of primitive gaussian shells          ...  468
 # of primitive gaussian functions       ...  972
 # of contracted shells                  ...  270
 # of contracted basis functions         ...  666
 Highest angular momentum                ...    3
 Maximum contraction depth               ...    6
 Integral package used                   ... LIBINT
 Integral threshhold            Thresh   ...  2.500e-11
 Primitive cut-off              TCut     ...  2.500e-12


------------------------------ INTEGRAL EVALUATION ----------------------------


 * One electron integrals 
 Pre-screening matrix                    ... done
 Shell pair data                         ... done (   0.007 sec)



           ************************************************************
           *        Program running with 24 parallel MPI-processes    *
           *              working on a common directory               *
           ************************************************************
-------------------------------------------------------------------------------
                                 ORCA SCF
-------------------------------------------------------------------------------

------------
SCF SETTINGS
------------
Hamiltonian:
 Ab initio Hamiltonian  Method          .... Hartree-Fock(GTOs)


General Settings:
 Integral files         IntName         .... orcacalc
 Hartree-Fock type      HFTyp           .... RHF
 Total Charge           Charge          ....    0
 Multiplicity           Mult            ....    1
 Number of Electrons    NEL             ....  132
 Basis Dimension        Dim             ....  666
 Nuclear Repulsion      ENuc            ....   1089.3510382142 Eh

Convergence Acceleration:
 DIIS                   CNVDIIS         .... on
   Start iteration      DIISMaxIt       ....    12
   Startup error        DIISStart       ....  0.200000
   # of expansion vecs  DIISMaxEq       ....     5
   Bias factor          DIISBfac        ....   1.050
   Max. coefficient     DIISMaxC        ....  10.000
 Newton-Raphson         CNVNR           .... off
 SOSCF                  CNVSOSCF        .... on
   Start iteration      SOSCFMaxIt      ....   150
   Startup grad/error   SOSCFStart      ....  0.003300
 Level Shifting         CNVShift        .... on
   Level shift para.    LevelShift      ....    0.2500
   Turn off err/grad.   ShiftErr        ....    0.0010
 Zerner damping         CNVZerner       .... off
 Static damping         CNVDamp         .... on
   Fraction old density DampFac         ....    0.7000
   Max. Damping (<1)    DampMax         ....    0.9800
   Min. Damping (>=0)   DampMin         ....    0.0000
   Turn off err/grad.   DampErr         ....    0.1000
 Fernandez-Rico         CNVRico         .... off

SCF Procedure:
 Maximum # iterations   MaxIter         ....   125
 SCF integral mode      SCFMode         .... Direct
   Integral package                     .... LIBINT
 Reset frequency        DirectResetFreq ....    20
 Integral Threshold     Thresh          ....  2.500e-11 Eh
 Primitive CutOff       TCut            ....  2.500e-12 Eh

Convergence Tolerance:
 Convergence Check Mode ConvCheckMode   .... Total+1el-Energy
 Convergence forced     ConvForced      .... 1
 Energy Change          TolE            ....  1.000e-08 Eh
 1-El. energy change                    ....  1.000e-05 Eh
 Orbital Gradient       TolG            ....  1.000e-05
 Orbital Rotation angle TolX            ....  1.000e-05
 DIIS Error             TolErr          ....  5.000e-07


Diagonalization of the overlap matrix:
Smallest eigenvalue                        ... 1.640e-04
Time for diagonalization                   ...    0.185 sec
Threshold for overlap eigenvalues          ... 1.000e-08
Number of eigenvalues below threshold      ... 0
Time for construction of square roots      ...    1.000 sec
Total time needed                          ...    1.187 sec

---------------------
INITIAL GUESS: MOREAD
---------------------
Guess MOs are being read from file: orcacalc.ges
Input geometry compatible with but different from current geometry
Input basis set matches current basis set (good)
MOs were renormalized
MOs were reorthogonalized (Cholesky)
                      ------------------
                      INITIAL GUESS DONE (   0.9 sec)
                      ------------------
--------------
SCF ITERATIONS
--------------
ITER       Energy         Delta-E        Max-DP      RMS-DP      [F,P]     Damp
               ***  Starting incremental Fock matrix formation  ***
  0   -791.8200429799   0.000000000000 0.00152818  0.00002081  0.0124381 0.7000
                      *** Initiating the SOSCF procedure ***
                      *** Re-Reading the Fockian *** 
                      *** Removing any level shift *** 
ITER      Energy       Delta-E        Grad      Rot      Max-DP    RMS-DP
  1   -791.82045819  -0.0004152061  0.000379  0.000379  0.003677  0.000059
               *** Restarting incremental Fock matrix formation ***
  2   -791.82165635  -0.0011981689  0.000476  0.000644  0.001753  0.000019
  3   -791.82176551  -0.0001091592  0.000240  0.000552  0.000716  0.000013
  4   -791.82178448  -0.0000189620  0.000186  0.000202  0.000284  0.000004
  5   -791.82178815  -0.0000036751  0.000047  0.000047  0.000103  0.000001
  6   -791.82178862  -0.0000004665  0.000024  0.000057  0.000069  0.000001
  7   -791.82178874  -0.0000001199  0.000013  0.000048  0.000055  0.000000
  8   -791.82178876  -0.0000000266  0.000006  0.000012  0.000015  0.000000
  9   -791.82178877  -0.0000000061  0.000003  0.000006  0.000006  0.000000
                 **** Energy Check signals convergence ****
              ***Rediagonalizing the Fockian in SOSCF/NRSCF***

               *****************************************************
               *                     SUCCESS                       *
               *           SCF CONVERGED AFTER  10 CYCLES          *
               *****************************************************


----------------
TOTAL SCF ENERGY
----------------

Total Energy       :         -791.82178877 Eh          -21546.56628 eV

Components:
Nuclear Repulsion  :         1089.35103821 Eh           29642.74876 eV
Electronic Energy  :        -1881.17282699 Eh          -51189.31504 eV
One Electron Energy:        -3237.34655134 Eh          -88092.67821 eV
Two Electron Energy:         1356.17372435 Eh           36903.36317 eV

Virial components:
Potential Energy   :        -1582.20350497 Eh          -43053.94619 eV
Kinetic Energy     :          790.38171620 Eh           21507.37991 eV
Virial Ratio       :            2.00182200


---------------
SCF CONVERGENCE
---------------

  Last Energy change         ...   -1.7776e-09  Tolerance :   1.0000e-08
  Last MAX-Density change    ...    4.0121e-06  Tolerance :   1.0000e-07
  Last RMS-Density change    ...    5.1136e-08  Tolerance :   5.0000e-09
  Last Orbital Gradient      ...    1.1360e-06  Tolerance :   1.0000e-05
  Last Orbital Rotation      ...    3.8102e-06  Tolerance :   1.0000e-05

             **** THE GBW FILE WAS UPDATED (orcacalc.gbw) ****
             **** DENSITY FILE WAS UPDATED (orcacalc.scfp) ****
             **** ENERGY FILE WAS UPDATED (orcacalc.en.tmp) ****
             **** THE GBW FILE WAS UPDATED (orcacalc.gbw) ****
             **** DENSITY FILE WAS UPDATED (orcacalc.scfp) ****
----------------
ORBITAL ENERGIES
----------------

  NO   OCC          E(Eh)            E(eV) 
   0   2.0000     -15.579845      -423.9491 
   1   2.0000     -15.577655      -423.8895 
   2   2.0000     -15.575313      -423.8258 
   3   2.0000     -15.565684      -423.5638 
   4   2.0000     -15.558347      -423.3641 
   5   2.0000     -15.551106      -423.1671 
   6   2.0000     -11.303566      -307.5857 
   7   2.0000     -11.293674      -307.3165 
   8   2.0000     -11.291482      -307.2568 
   9   2.0000     -11.290396      -307.2273 
  10   2.0000     -11.276159      -306.8399 
  11   2.0000     -11.274278      -306.7887 
  12   2.0000     -11.272349      -306.7362 
  13   2.0000     -11.269210      -306.6508 
  14   2.0000     -11.261590      -306.4434 
  15   2.0000     -11.257440      -306.3305 
  16   2.0000     -11.256279      -306.2989 
  17   2.0000     -11.253794      -306.2313 
  18   2.0000      -1.244714       -33.8704 
  19   2.0000      -1.222962       -33.2785 
  20   2.0000      -1.220276       -33.2054 
  21   2.0000      -1.219868       -33.1943 
  22   2.0000      -1.203413       -32.7465 
  23   2.0000      -1.196195       -32.5501 
  24   2.0000      -1.032535       -28.0967 
  25   2.0000      -1.030252       -28.0346 
  26   2.0000      -1.023487       -27.8505 
  27   2.0000      -1.020195       -27.7609 
  28   2.0000      -1.016303       -27.6550 
  29   2.0000      -1.013178       -27.5700 
  30   2.0000      -0.702717       -19.1219 
  31   2.0000      -0.693802       -18.8793 
  32   2.0000      -0.693052       -18.8589 
  33   2.0000      -0.679909       -18.5013 
  34   2.0000      -0.679743       -18.4968 
  35   2.0000      -0.678167       -18.4539 
  36   2.0000      -0.638179       -17.3657 
  37   2.0000      -0.632994       -17.2246 
  38   2.0000      -0.630311       -17.1516 
  39   2.0000      -0.625281       -17.0148 
  40   2.0000      -0.618537       -16.8312 
  41   2.0000      -0.616622       -16.7791 
  42   2.0000      -0.615584       -16.7509 
  43   2.0000      -0.611713       -16.6456 
  44   2.0000      -0.607115       -16.5204 
  45   2.0000      -0.603469       -16.4212 
  46   2.0000      -0.595464       -16.2034 
  47   2.0000      -0.582485       -15.8502 
  48   2.0000      -0.569320       -15.4920 
  49   2.0000      -0.563292       -15.3279 
  50   2.0000      -0.552589       -15.0367 
  51   2.0000      -0.547426       -14.8962 
  52   2.0000      -0.546168       -14.8620 
  53   2.0000      -0.539588       -14.6829 
  54   2.0000      -0.487037       -13.2529 
  55   2.0000      -0.485736       -13.2175 
  56   2.0000      -0.470479       -12.8024 
  57   2.0000      -0.465864       -12.6768 
  58   2.0000      -0.463550       -12.6139 
  59   2.0000      -0.461715       -12.5639 
  60   2.0000      -0.460139       -12.5210 
  61   2.0000      -0.458342       -12.4721 
  62   2.0000      -0.448049       -12.1920 
  63   2.0000      -0.443653       -12.0724 
  64   2.0000      -0.440896       -11.9974 
  65   2.0000      -0.439024       -11.9464 
  66   0.0000       0.101577         2.7640 
  67   0.0000       0.122472         3.3326 
  68   0.0000       0.137004         3.7281 
  69   0.0000       0.138640         3.7726 
  70   0.0000       0.149888         4.0787 
  71   0.0000       0.152417         4.1475 
  72   0.0000       0.159758         4.3472 
  73   0.0000       0.165770         4.5108 
  74   0.0000       0.167931         4.5696 
  75   0.0000       0.168376         4.5818 
  76   0.0000       0.171988         4.6800 
  77   0.0000       0.177638         4.8338 
  78   0.0000       0.185558         5.0493 
  79   0.0000       0.187251         5.0954 
  80   0.0000       0.188486         5.1290 
  81   0.0000       0.192628         5.2417 
  82   0.0000       0.196491         5.3468 
  83   0.0000       0.203149         5.5280 
  84   0.0000       0.204546         5.5660 
  85   0.0000       0.209115         5.6903 
  86   0.0000       0.212844         5.7918 
  87   0.0000       0.214395         5.8340 
  88   0.0000       0.219200         5.9647 
  89   0.0000       0.222525         6.0552 
  90   0.0000       0.228676         6.2226 
  91   0.0000       0.232369         6.3231 
  92   0.0000       0.237471         6.4619 
  93   0.0000       0.239225         6.5096 
  94   0.0000       0.242366         6.5951 
  95   0.0000       0.245790         6.6883 
  96   0.0000       0.246784         6.7153 
  97   0.0000       0.258453         7.0329 
  98   0.0000       0.263817         7.1788 
  99   0.0000       0.267110         7.2684 
 100   0.0000       0.273846         7.4517 
 101   0.0000       0.279936         7.6174 
 102   0.0000       0.284911         7.7528 
 103   0.0000       0.292739         7.9658 
 104   0.0000       0.299097         8.1389 
 105   0.0000       0.304339         8.2815 
 106   0.0000       0.312284         8.4977 
 107   0.0000       0.314313         8.5529 
 108   0.0000       0.317827         8.6485 
 109   0.0000       0.323042         8.7904 
 110   0.0000       0.332170         9.0388 
 111   0.0000       0.334653         9.1064 
 112   0.0000       0.344037         9.3617 
 113   0.0000       0.348294         9.4776 
 114   0.0000       0.352324         9.5872 
 115   0.0000       0.361029         9.8241 
 116   0.0000       0.366330         9.9684 
 117   0.0000       0.376436        10.2433 
 118   0.0000       0.388101        10.5608 
 119   0.0000       0.398619        10.8470 
 120   0.0000       0.401557        10.9269 
 121   0.0000       0.405290        11.0285 
 122   0.0000       0.408317        11.1109 
 123   0.0000       0.422534        11.4977 
 124   0.0000       0.438226        11.9247 
 125   0.0000       0.448016        12.1911 
 126   0.0000       0.454039        12.3550 
 127   0.0000       0.457287        12.4434 
 128   0.0000       0.462927        12.5969 
 129   0.0000       0.465380        12.6636 
 130   0.0000       0.480270        13.0688 
 131   0.0000       0.484690        13.1891 
 132   0.0000       0.493286        13.4230 
 133   0.0000       0.503777        13.7085 
 134   0.0000       0.515970        14.0403 
 135   0.0000       0.516408        14.0522 
 136   0.0000       0.518500        14.1091 
 137   0.0000       0.522115        14.2075 
 138   0.0000       0.526255        14.3201 
 139   0.0000       0.532193        14.4817 
 140   0.0000       0.532681        14.4950 
 141   0.0000       0.542961        14.7747 
 142   0.0000       0.546254        14.8643 
 143   0.0000       0.549979        14.9657 
 144   0.0000       0.556289        15.1374 
 145   0.0000       0.562308        15.3012 
 146   0.0000       0.566204        15.4072 
 147   0.0000       0.572977        15.5915 
 148   0.0000       0.586113        15.9489 
 149   0.0000       0.588048        16.0016 
 150   0.0000       0.588973        16.0268 
 151   0.0000       0.600526        16.3411 
 152   0.0000       0.606665        16.5082 
 153   0.0000       0.609256        16.5787 
 154   0.0000       0.618020        16.8172 
 155   0.0000       0.621723        16.9180 
 156   0.0000       0.627628        17.0786 
 157   0.0000       0.634248        17.2588 
 158   0.0000       0.637863        17.3571 
 159   0.0000       0.641749        17.4629 
 160   0.0000       0.644548        17.5391 
 161   0.0000       0.649181        17.6651 
 162   0.0000       0.654699        17.8153 
 163   0.0000       0.658097        17.9077 
 164   0.0000       0.659923        17.9574 
 165   0.0000       0.669323        18.2132 
 166   0.0000       0.672948        18.3119 
 167   0.0000       0.682247        18.5649 
 168   0.0000       0.685331        18.6488 
 169   0.0000       0.686687        18.6857 
 170   0.0000       0.696919        18.9641 
 171   0.0000       0.701092        19.0777 
 172   0.0000       0.716620        19.5002 
 173   0.0000       0.721749        19.6398 
 174   0.0000       0.730921        19.8894 
 175   0.0000       0.734757        19.9938 
 176   0.0000       0.745242        20.2791 
 177   0.0000       0.747479        20.3399 
 178   0.0000       0.756218        20.5777 
 179   0.0000       0.761735        20.7279 
 180   0.0000       0.768325        20.9072 
 181   0.0000       0.773006        21.0346 
 182   0.0000       0.790209        21.5027 
 183   0.0000       0.798118        21.7179 
 184   0.0000       0.804534        21.8925 
 185   0.0000       0.811032        22.0693 
 186   0.0000       0.822818        22.3900 
 187   0.0000       0.829315        22.5668 
 188   0.0000       0.835188        22.7266 
 189   0.0000       0.838798        22.8249 
 190   0.0000       0.849698        23.1215 
 191   0.0000       0.851905        23.1815 
 192   0.0000       0.855087        23.2681 
 193   0.0000       0.865628        23.5549 
 194   0.0000       0.871747        23.7214 
 195   0.0000       0.873135        23.7592 
 196   0.0000       0.881971        23.9996 
 197   0.0000       0.885502        24.0957 
 198   0.0000       0.893201        24.3052 
 199   0.0000       0.897851        24.4318 
 200   0.0000       0.905453        24.6386 
 201   0.0000       0.914470        24.8840 
 202   0.0000       0.929855        25.3026 
 203   0.0000       0.938751        25.5447 
 204   0.0000       0.945731        25.7347 
 205   0.0000       0.950452        25.8631 
 206   0.0000       0.961159        26.1545 
 207   0.0000       0.975858        26.5544 
 208   0.0000       0.981030        26.6952 
 209   0.0000       0.986085        26.8327 
 210   0.0000       0.997374        27.1399 
 211   0.0000       1.006490        27.3880 
 212   0.0000       1.009604        27.4727 
 213   0.0000       1.018625        27.7182 
 214   0.0000       1.039227        28.2788 
 215   0.0000       1.055126        28.7114 
 216   0.0000       1.063019        28.9262 
 217   0.0000       1.081486        29.4287 
 218   0.0000       1.089260        29.6403 
 219   0.0000       1.095577        29.8122 
 220   0.0000       1.107423        30.1345 
 221   0.0000       1.119828        30.4721 
 222   0.0000       1.134104        30.8605 
 223   0.0000       1.136852        30.9353 
 224   0.0000       1.150320        31.3018 
 225   0.0000       1.158980        31.5375 
 226   0.0000       1.164266        31.6813 
 227   0.0000       1.170562        31.8526 
 228   0.0000       1.189636        32.3716 
 229   0.0000       1.196657        32.5627 
 230   0.0000       1.210787        32.9472 
 231   0.0000       1.219762        33.1914 
 232   0.0000       1.224590        33.3228 
 233   0.0000       1.247247        33.9393 
 234   0.0000       1.301646        35.4196 
 235   0.0000       1.304591        35.4997 
 236   0.0000       1.318331        35.8736 
 237   0.0000       1.322078        35.9756 
 238   0.0000       1.332821        36.2679 
 239   0.0000       1.337520        36.3958 
 240   0.0000       1.367385        37.2084 
 241   0.0000       1.383323        37.6421 
 242   0.0000       1.391886        37.8751 
 243   0.0000       1.397543        38.0291 
 244   0.0000       1.401733        38.1431 
 245   0.0000       1.403768        38.1985 
 246   0.0000       1.409833        38.3635 
 247   0.0000       1.418138        38.5895 
 248   0.0000       1.419954        38.6389 
 249   0.0000       1.422928        38.7198 
 250   0.0000       1.436962        39.1017 
 251   0.0000       1.443945        39.2917 
 252   0.0000       1.460771        39.7496 
 253   0.0000       1.471209        40.0336 
 254   0.0000       1.482679        40.3458 
 255   0.0000       1.483920        40.3795 
 256   0.0000       1.488530        40.5050 
 257   0.0000       1.490661        40.5629 
 258   0.0000       1.496734        40.7282 
 259   0.0000       1.503993        40.9257 
 260   0.0000       1.506915        41.0052 
 261   0.0000       1.519941        41.3597 
 262   0.0000       1.521363        41.3984 
 263   0.0000       1.528423        41.5905 
 264   0.0000       1.530614        41.6501 
 265   0.0000       1.533810        41.7371 
 266   0.0000       1.538609        41.8677 
 267   0.0000       1.558036        42.3963 
 268   0.0000       1.563533        42.5459 
 269   0.0000       1.572777        42.7974 
 270   0.0000       1.574775        42.8518 
 271   0.0000       1.585135        43.1337 
 272   0.0000       1.593352        43.3573 
 273   0.0000       1.602852        43.6158 
 274   0.0000       1.629792        44.3489 
 275   0.0000       1.637987        44.5719 
 276   0.0000       1.700370        46.2694 
 277   0.0000       1.715569        46.6830 
 278   0.0000       1.721425        46.8424 
 279   0.0000       1.726994        46.9939 
 280   0.0000       1.727652        47.0118 
 281   0.0000       1.735520        47.2259 
 282   0.0000       1.741077        47.3771 
 283   0.0000       1.748316        47.5741 
 284   0.0000       1.758087        47.8400 
 285   0.0000       1.764557        48.0160 
 286   0.0000       1.769854        48.1602 
 287   0.0000       1.771621        48.2083 
 288   0.0000       1.780906        48.4609 
 289   0.0000       1.786868        48.6231 
 290   0.0000       1.788694        48.6728 
 291   0.0000       1.794563        48.8325 
 292   0.0000       1.799540        48.9680 
 293   0.0000       1.804876        49.1132 
 294   0.0000       1.808881        49.2222 
 295   0.0000       1.810371        49.2627 
 296   0.0000       1.814384        49.3719 
 297   0.0000       1.820740        49.5448 
 298   0.0000       1.824811        49.6556 
 299   0.0000       1.829683        49.7882 
 300   0.0000       1.833887        49.9026 
 301   0.0000       1.841887        50.1203 
 302   0.0000       1.845248        50.2117 
 303   0.0000       1.846696        50.2512 
 304   0.0000       1.859111        50.5890 
 305   0.0000       1.869808        50.8801 
 306   0.0000       1.880228        51.1636 
 307   0.0000       1.883597        51.2553 
 308   0.0000       1.898032        51.6481 
 309   0.0000       1.903785        51.8046 
 310   0.0000       1.920830        52.2684 
 311   0.0000       1.941089        52.8197 
 312   0.0000       1.947771        53.0016 
 313   0.0000       1.949653        53.0527 
 314   0.0000       1.959207        53.3127 
 315   0.0000       1.959807        53.3291 
 316   0.0000       1.963605        53.4324 
 317   0.0000       1.971745        53.6539 
 318   0.0000       1.977825        53.8194 
 319   0.0000       1.981858        53.9291 
 320   0.0000       1.983744        53.9804 
 321   0.0000       2.006524        54.6003 
 322   0.0000       2.024348        55.0853 
 323   0.0000       2.029477        55.2249 
 324   0.0000       2.032502        55.3072 
 325   0.0000       2.061812        56.1048 
 326   0.0000       2.070303        56.3358 
 327   0.0000       2.080888        56.6238 
 328   0.0000       2.089908        56.8693 
 329   0.0000       2.112543        57.4852 
 330   0.0000       2.192760        59.6680 
 331   0.0000       2.195075        59.7310 
 332   0.0000       2.208400        60.0936 
 333   0.0000       2.218471        60.3677 
 334   0.0000       2.225565        60.5607 
 335   0.0000       2.230366        60.6914 
 336   0.0000       2.234401        60.8011 
 337   0.0000       2.235410        60.8286 
 338   0.0000       2.246490        61.1301 
 339   0.0000       2.250982        61.2523 
 340   0.0000       2.264228        61.6128 
 341   0.0000       2.270290        61.7777 
 342   0.0000       2.278998        62.0147 
 343   0.0000       2.303320        62.6765 
 344   0.0000       2.311836        62.9083 
 345   0.0000       2.316214        63.0274 
 346   0.0000       2.320763        63.1512 
 347   0.0000       2.347545        63.8799 
 348   0.0000       2.367277        64.4169 
 349   0.0000       2.376405        64.6653 
 350   0.0000       2.388218        64.9867 
 351   0.0000       2.407996        65.5249 
 352   0.0000       2.426128        66.0183 
 353   0.0000       2.439082        66.3708 
 354   0.0000       2.489440        67.7411 
 355   0.0000       2.507690        68.2377 
 356   0.0000       2.517219        68.4970 
 357   0.0000       2.527180        68.7681 
 358   0.0000       2.532503        68.9129 
 359   0.0000       2.538184        69.0675 
 360   0.0000       2.542199        69.1767 
 361   0.0000       2.546864        69.3037 
 362   0.0000       2.551361        69.4261 
 363   0.0000       2.560770        69.6821 
 364   0.0000       2.568210        69.8845 
 365   0.0000       2.572398        69.9985 
 366   0.0000       2.584566        70.3296 
 367   0.0000       2.601413        70.7881 
 368   0.0000       2.608369        70.9773 
 369   0.0000       2.613089        71.1058 
 370   0.0000       2.620968        71.3202 
 371   0.0000       2.625512        71.4438 
 372   0.0000       2.641443        71.8773 
 373   0.0000       2.646939        72.0269 
 374   0.0000       2.652749        72.1850 
 375   0.0000       2.660466        72.3950 
 376   0.0000       2.667064        72.5745 
 377   0.0000       2.674136        72.7669 
 378   0.0000       2.676321        72.8264 
 379   0.0000       2.693247        73.2870 
 380   0.0000       2.700072        73.4727 
 381   0.0000       2.704569        73.5951 
 382   0.0000       2.707915        73.6861 
 383   0.0000       2.719916        74.0127 
 384   0.0000       2.728959        74.2588 
 385   0.0000       2.739905        74.5566 
 386   0.0000       2.746338        74.7316 
 387   0.0000       2.757037        75.0228 
 388   0.0000       2.762473        75.1707 
 389   0.0000       2.773927        75.4824 
 390   0.0000       2.775038        75.5126 
 391   0.0000       2.786598        75.8272 
 392   0.0000       2.799717        76.1842 
 393   0.0000       2.801704        76.2382 
 394   0.0000       2.810167        76.4685 
 395   0.0000       2.812684        76.5370 
 396   0.0000       2.820146        76.7401 
 397   0.0000       2.837545        77.2135 
 398   0.0000       2.843467        77.3747 
 399   0.0000       2.850277        77.5600 
 400   0.0000       2.864199        77.9388 
 401   0.0000       2.869550        78.0844 
 402   0.0000       2.879455        78.3540 
 403   0.0000       2.883068        78.4523 
 404   0.0000       2.899499        78.8994 
 405   0.0000       2.900185        78.9181 
 406   0.0000       2.908297        79.1388 
 407   0.0000       2.916495        79.3619 
 408   0.0000       2.917967        79.4019 
 409   0.0000       2.923008        79.5391 
 410   0.0000       2.929252        79.7090 
 411   0.0000       2.932363        79.7937 
 412   0.0000       2.934271        79.8456 
 413   0.0000       2.938473        79.9599 
 414   0.0000       2.943939        80.1087 
 415   0.0000       2.944964        80.1365 
 416   0.0000       2.950360        80.2834 
 417   0.0000       2.954003        80.3825 
 418   0.0000       2.956866        80.4604 
 419   0.0000       2.966829        80.7315 
 420   0.0000       2.973083        80.9017 
 421   0.0000       2.988826        81.3301 
 422   0.0000       3.004296        81.7510 
 423   0.0000       3.015147        82.0463 
 424   0.0000       3.022298        82.2409 
 425   0.0000       3.044146        82.8354 
 426   0.0000       3.044272        82.8388 
 427   0.0000       3.055541        83.1455 
 428   0.0000       3.058859        83.2358 
 429   0.0000       3.063041        83.3496 
 430   0.0000       3.065122        83.4062 
 431   0.0000       3.071433        83.5779 
 432   0.0000       3.079908        83.8086 
 433   0.0000       3.087999        84.0287 
 434   0.0000       3.108432        84.5847 
 435   0.0000       3.111012        84.6549 
 436   0.0000       3.114136        84.7400 
 437   0.0000       3.124521        85.0225 
 438   0.0000       3.134662        85.2985 
 439   0.0000       3.139201        85.4220 
 440   0.0000       3.152261        85.7774 
 441   0.0000       3.159875        85.9846 
 442   0.0000       3.205676        87.2309 
 443   0.0000       3.208684        87.3127 
 444   0.0000       3.215981        87.5113 
 445   0.0000       3.238990        88.1374 
 446   0.0000       3.249716        88.4293 
 447   0.0000       3.252388        88.5020 
 448   0.0000       3.255374        88.5832 
 449   0.0000       3.263115        88.7939 
 450   0.0000       3.268367        88.9368 
 451   0.0000       3.269062        88.9557 
 452   0.0000       3.273295        89.0709 
 453   0.0000       3.277444        89.1838 
 454   0.0000       3.288051        89.4724 
 455   0.0000       3.290512        89.5394 
 456   0.0000       3.294595        89.6505 
 457   0.0000       3.306623        89.9778 
 458   0.0000       3.309590        90.0585 
 459   0.0000       3.314888        90.2027 
 460   0.0000       3.317622        90.2771 
 461   0.0000       3.324647        90.4682 
 462   0.0000       3.330760        90.6346 
 463   0.0000       3.334437        90.7346 
 464   0.0000       3.348121        91.1070 
 465   0.0000       3.358377        91.3861 
 466   0.0000       3.365001        91.5663 
 467   0.0000       3.372503        91.7705 
 468   0.0000       3.381321        92.0104 
 469   0.0000       3.386480        92.1508 
 470   0.0000       3.393604        92.3447 
 471   0.0000       3.400894        92.5430 
 472   0.0000       3.411447        92.8302 
 473   0.0000       3.423741        93.1647 
 474   0.0000       3.444374        93.7262 
 475   0.0000       3.449874        93.8758 
 476   0.0000       3.462720        94.2254 
 477   0.0000       3.466122        94.3180 
 478   0.0000       3.468454        94.3814 
 479   0.0000       3.475934        94.5850 
 480   0.0000       3.481756        94.7434 
 481   0.0000       3.487300        94.8943 
 482   0.0000       3.490504        94.9814 
 483   0.0000       3.499428        95.2243 
 484   0.0000       3.506305        95.4114 
 485   0.0000       3.518838        95.7524 
 486   0.0000       3.529363        96.0388 
 487   0.0000       3.552214        96.6607 
 488   0.0000       3.572162        97.2035 
 489   0.0000       3.580001        97.4168 
 490   0.0000       3.583395        97.5091 
 491   0.0000       3.593739        97.7906 
 492   0.0000       3.617482        98.4367 
 493   0.0000       3.626975        98.6950 
 494   0.0000       3.637248        98.9746 
 495   0.0000       3.640680        99.0679 
 496   0.0000       3.644532        99.1728 
 497   0.0000       3.651852        99.3719 
 498   0.0000       3.664876        99.7263 
 499   0.0000       3.668074        99.8134 
 500   0.0000       3.677801       100.0781 
 501   0.0000       3.679894       100.1350 
 502   0.0000       3.693155       100.4959 
 503   0.0000       3.736053       101.6632 
 504   0.0000       3.740205       101.7762 
 505   0.0000       3.742648       101.8426 
 506   0.0000       3.748756       102.0088 
 507   0.0000       3.758077       102.2625 
 508   0.0000       3.759853       102.3108 
 509   0.0000       3.767835       102.5280 
 510   0.0000       3.782186       102.9185 
 511   0.0000       3.790289       103.1390 
 512   0.0000       3.809908       103.6729 
 513   0.0000       3.819192       103.9255 
 514   0.0000       3.824723       104.0760 
 515   0.0000       3.829035       104.1933 
 516   0.0000       3.871836       105.3580 
 517   0.0000       3.884953       105.7149 
 518   0.0000       3.897077       106.0449 
 519   0.0000       3.900919       106.1494 
 520   0.0000       3.913334       106.4872 
 521   0.0000       3.918871       106.6379 
 522   0.0000       3.925263       106.8118 
 523   0.0000       3.939287       107.1934 
 524   0.0000       3.949062       107.4594 
 525   0.0000       3.951030       107.5130 
 526   0.0000       3.954208       107.5995 
 527   0.0000       3.966599       107.9367 
 528   0.0000       3.978809       108.2689 
 529   0.0000       3.994735       108.7023 
 530   0.0000       4.022362       109.4540 
 531   0.0000       4.026499       109.5666 
 532   0.0000       4.033199       109.7489 
 533   0.0000       4.084490       111.1446 
 534   0.0000       4.180886       113.7677 
 535   0.0000       4.229919       115.1019 
 536   0.0000       4.235121       115.2435 
 537   0.0000       4.255305       115.7927 
 538   0.0000       4.261385       115.9582 
 539   0.0000       4.270073       116.1946 
 540   0.0000       4.274455       116.3138 
 541   0.0000       4.282981       116.5458 
 542   0.0000       4.314692       117.4087 
 543   0.0000       4.326304       117.7247 
 544   0.0000       4.336150       117.9926 
 545   0.0000       4.336599       118.0049 
 546   0.0000       4.339500       118.0838 
 547   0.0000       4.346381       118.2710 
 548   0.0000       4.347398       118.2987 
 549   0.0000       4.352065       118.4257 
 550   0.0000       4.357398       118.5708 
 551   0.0000       4.360523       118.6559 
 552   0.0000       4.361373       118.6790 
 553   0.0000       4.361985       118.6956 
 554   0.0000       4.366453       118.8172 
 555   0.0000       4.373416       119.0067 
 556   0.0000       4.384317       119.3033 
 557   0.0000       4.390875       119.4818 
 558   0.0000       4.486543       122.0850 
 559   0.0000       4.503835       122.5556 
 560   0.0000       4.531509       123.3086 
 561   0.0000       4.548596       123.7736 
 562   0.0000       4.588296       124.8539 
 563   0.0000       4.607761       125.3835 
 564   0.0000       4.653665       126.6327 
 565   0.0000       4.656658       126.7141 
 566   0.0000       4.677393       127.2783 
 567   0.0000       4.679529       127.3365 
 568   0.0000       4.695772       127.7785 
 569   0.0000       4.703103       127.9779 
 570   0.0000       4.744876       129.1146 
 571   0.0000       4.773120       129.8832 
 572   0.0000       4.796469       130.5186 
 573   0.0000       4.802133       130.6727 
 574   0.0000       4.806536       130.7925 
 575   0.0000       4.812634       130.9584 
 576   0.0000       4.813441       130.9804 
 577   0.0000       4.816820       131.0723 
 578   0.0000       4.864413       132.3674 
 579   0.0000       4.885340       132.9369 
 580   0.0000       4.910899       133.6324 
 581   0.0000       4.940005       134.4244 
 582   0.0000       4.960300       134.9766 
 583   0.0000       4.969545       135.2282 
 584   0.0000       4.971994       135.2948 
 585   0.0000       4.984132       135.6251 
 586   0.0000       4.985023       135.6494 
 587   0.0000       4.998076       136.0046 
 588   0.0000       5.007165       136.2519 
 589   0.0000       5.008831       136.2972 
 590   0.0000       5.011834       136.3789 
 591   0.0000       5.014339       136.4471 
 592   0.0000       5.018937       136.5722 
 593   0.0000       5.021189       136.6335 
 594   0.0000       5.060798       137.7113 
 595   0.0000       5.064881       137.8224 
 596   0.0000       5.071181       137.9939 
 597   0.0000       5.073950       138.0692 
 598   0.0000       5.079012       138.2070 
 599   0.0000       5.081854       138.2843 
 600   0.0000       5.085239       138.3764 
 601   0.0000       5.095057       138.6436 
 602   0.0000       5.102328       138.8414 
 603   0.0000       5.113841       139.1547 
 604   0.0000       5.129873       139.5909 
 605   0.0000       5.153023       140.2209 
 606   0.0000       5.177854       140.8966 
 607   0.0000       5.215795       141.9290 
 608   0.0000       5.247212       142.7839 
 609   0.0000       5.250644       142.8773 
 610   0.0000       5.252426       142.9258 
 611   0.0000       5.266968       143.3215 
 612   0.0000       5.538963       150.7228 
 613   0.0000       5.540190       150.7562 
 614   0.0000       5.544016       150.8603 
 615   0.0000       5.559504       151.2818 
 616   0.0000       5.563476       151.3899 
 617   0.0000       5.566842       151.4815 
 618   0.0000       5.576195       151.7360 
 619   0.0000       5.595223       152.2538 
 620   0.0000       5.595759       152.2683 
 621   0.0000       5.609325       152.6375 
 622   0.0000       5.620188       152.9331 
 623   0.0000       5.641870       153.5231 
 624   0.0000       5.936594       161.5429 
 625   0.0000       5.995303       163.1405 
 626   0.0000       6.010116       163.5436 
 627   0.0000       6.017033       163.7318 
 628   0.0000       6.031222       164.1179 
 629   0.0000       6.032795       164.1607 
 630   0.0000       6.043645       164.4559 
 631   0.0000       6.080613       165.4619 
 632   0.0000       6.091791       165.7661 
 633   0.0000       6.103052       166.0725 
 634   0.0000       6.108786       166.2285 
 635   0.0000       6.115409       166.4087 
 636   0.0000       6.121991       166.5878 
 637   0.0000       6.130673       166.8241 
 638   0.0000       6.135188       166.9470 
 639   0.0000       6.141265       167.1123 
 640   0.0000       6.141891       167.1293 
 641   0.0000       6.187274       168.3643 
 642   0.0000       6.425381       174.8435 
 643   0.0000       6.435823       175.1276 
 644   0.0000       6.455995       175.6766 
 645   0.0000       6.459538       175.7730 
 646   0.0000       6.562017       178.5616 
 647   0.0000       6.601771       179.6433 
 648   0.0000      23.272244       633.2700 
 649   0.0000      23.451277       638.1417 
 650   0.0000      23.466491       638.5557 
 651   0.0000      23.479843       638.9190 
 652   0.0000      23.522091       640.0686 
 653   0.0000      23.553155       640.9139 
 654   0.0000      24.111451       656.1059 
 655   0.0000      24.239151       659.5808 
 656   0.0000      24.258809       660.1157 
 657   0.0000      24.277212       660.6165 
 658   0.0000      24.280106       660.6953 
 659   0.0000      24.287343       660.8922 
 660   0.0000      33.417466       909.3355 
 661   0.0000      33.434362       909.7952 
 662   0.0000      33.458338       910.4477 
 663   0.0000      33.487884       911.2517 
 664   0.0000      33.526892       912.3131 
 665   0.0000      33.622330       914.9101 

                    ********************************
                    * MULLIKEN POPULATION ANALYSIS *
                    ********************************

-----------------------
MULLIKEN ATOMIC CHARGES
-----------------------
   0 C :   -0.208895
   1 H :    0.195230
   2 H :    0.136220
   3 H :    0.144759
   4 C :   -0.005926
   5 N :   -0.268082
   6 C :   -0.208551
   7 H :    0.186059
   8 H :    0.163437
   9 H :    0.155961
  10 C :   -0.037366
  11 N :   -0.248311
  12 C :   -0.203313
  13 H :    0.153117
  14 H :    0.178045
  15 H :    0.178280
  16 C :   -0.047366
  17 N :   -0.253322
  18 C :   -0.179598
  19 H :    0.148913
  20 H :    0.159466
  21 H :    0.157266
  22 C :   -0.098398
  23 N :   -0.191765
  24 C :   -0.220491
  25 H :    0.137210
  26 H :    0.163298
  27 H :    0.170392
  28 C :   -0.033413
  29 N :   -0.226811
  30 C :   -0.197049
  31 H :    0.173134
  32 H :    0.168110
  33 H :    0.152704
  34 C :   -0.011027
  35 N :   -0.281917
Sum of atomic charges:   -0.0000000

--------------------------------
MULLIKEN REDUCED ORBITAL CHARGES
--------------------------------
  0 C s       :     3.173566  s :     3.173566
      pz      :     1.065121  p :     2.967744
      px      :     1.027632
      py      :     0.874991
      dz2     :     0.006825  d :     0.063753
      dxz     :     0.016185
      dyz     :     0.014139
      dx2y2   :     0.019384
      dxy     :     0.007220
      f0      :     0.000326  f :     0.003834
      f+1     :     0.000097
      f-1     :     0.000541
      f+2     :     0.001885
      f-2     :     0.000240
      f+3     :     0.000555
      f-3     :     0.000190
  1 H s       :     0.777664  s :     0.777664
      pz      :     0.012602  p :     0.027105
      px      :     0.003998
      py      :     0.010505
  2 H s       :     0.841336  s :     0.841336
      pz      :     0.005927  p :     0.022444
      px      :     0.013138
      py      :     0.003379
  3 H s       :     0.833556  s :     0.833556
      pz      :     0.007822  p :     0.021685
      px      :     0.009820
      py      :     0.004044
  4 C s       :     3.219805  s :     3.219805
      pz      :     0.826574  p :     2.662036
      px      :     0.865442
      py      :     0.970020
      dz2     :     0.025707  d :     0.107772
      dxz     :     0.017521
      dyz     :     0.023909
      dx2y2   :     0.017149
      dxy     :     0.023485
      f0      :     0.001860  f :     0.016313
      f+1     :     0.000475
      f-1     :     0.004202
      f+2     :     0.002405
      f-2     :     0.003304
      f+3     :     0.002124
      f-3     :     0.001944
  5 N s       :     3.733099  s :     3.733099
      pz      :     1.122236  p :     3.477699
      px      :     1.115000
      py      :     1.240463
      dz2     :     0.016478  d :     0.054257
      dxz     :     0.009297
      dyz     :     0.009125
      dx2y2   :     0.008280
      dxy     :     0.011077
      f0      :     0.000426  f :     0.003027
      f+1     :     0.000133
      f-1     :     0.000781
      f+2     :     0.000435
      f-2     :     0.000689
      f+3     :     0.000306
      f-3     :     0.000258
  6 C s       :     3.206710  s :     3.206710
      pz      :     1.072737  p :     2.936938
      px      :     1.099725
      py      :     0.764476
      dz2     :     0.013769  d :     0.061354
      dxz     :     0.011768
      dyz     :     0.009004
      dx2y2   :     0.016417
      dxy     :     0.010395
      f0      :     0.000444  f :     0.003549
      f+1     :     0.000763
      f-1     :     0.000642
      f+2     :     0.000266
      f-2     :     0.000014
      f+3     :     0.000204
      f-3     :     0.001215
  7 H s       :     0.793093  s :     0.793093
      pz      :     0.003576  p :     0.020848
      px      :     0.012689
      py      :     0.004583
  8 H s       :     0.814406  s :     0.814406
      pz      :     0.013646  p :     0.022157
      px      :     0.004216
      py      :     0.004295
  9 H s       :     0.821964  s :     0.821964
      pz      :     0.009325  p :     0.022076
      px      :     0.008145
      py      :     0.004605
 10 C s       :     3.266768  s :     3.266768
      pz      :     0.853220  p :     2.638255
      px      :     0.856434
      py      :     0.928601
      dz2     :     0.007171  d :     0.115448
      dxz     :     0.000966
      dyz     :     0.043815
      dx2y2   :     0.021116
      dxy     :     0.042380
      f0      :     0.002411  f :     0.016895
      f+1     :     0.000410
      f-1     :     0.001467
      f+2     :     0.003757
      f-2     :     0.000341
      f+3     :     0.005253
      f-3     :     0.003255
 11 N s       :     3.727594  s :     3.727594
      pz      :     1.098015  p :     3.464069
      px      :     1.097678
      py      :     1.268376
      dz2     :     0.002488  d :     0.053549
      dxz     :     0.000712
      dyz     :     0.020993
      dx2y2   :     0.009018
      dxy     :     0.020339
      f0      :     0.000464  f :     0.003098
      f+1     :     0.000081
      f-1     :     0.000225
      f+2     :     0.000700
      f-2     :     0.000082
      f+3     :     0.000988
      f-3     :     0.000558
 12 C s       :     3.142868  s :     3.142868
      pz      :     1.089026  p :     2.994106
      px      :     1.104579
      py      :     0.800502
      dz2     :     0.008625  d :     0.062719
      dxz     :     0.011441
      dyz     :     0.015954
      dx2y2   :     0.016056
      dxy     :     0.010644
      f0      :     0.000207  f :     0.003620
      f+1     :     0.000687
      f-1     :     0.000505
      f+2     :     0.000971
      f-2     :     0.000096
      f+3     :     0.000152
      f-3     :     0.001001
 13 H s       :     0.824983  s :     0.824983
      pz      :     0.009904  p :     0.021901
      px      :     0.008420
      py      :     0.003576
 14 H s       :     0.798515  s :     0.798515
      pz      :     0.004587  p :     0.023440
      px      :     0.013219
      py      :     0.005634
 15 H s       :     0.797395  s :     0.797395
      pz      :     0.009915  p :     0.024325
      px      :     0.005689
      py      :     0.008722
 16 C s       :     3.253726  s :     3.253726
      pz      :     0.851183  p :     2.662604
      px      :     0.860935
      py      :     0.950486
      dz2     :     0.013085  d :     0.114525
      dxz     :     0.004262
      dyz     :     0.037648
      dx2y2   :     0.020085
      dxy     :     0.039444
      f0      :     0.001365  f :     0.016511
      f+1     :     0.000146
      f-1     :     0.003432
      f+2     :     0.003107
      f-2     :     0.001146
      f+3     :     0.004915
      f-3     :     0.002400
 17 N s       :     3.743187  s :     3.743187
      pz      :     1.106450  p :     3.453359
      px      :     1.087827
      py      :     1.259082
      dz2     :     0.005894  d :     0.053838
      dxz     :     0.001448
      dyz     :     0.017794
      dx2y2   :     0.008773
      dxy     :     0.019930
      f0      :     0.000231  f :     0.002938
      f+1     :     0.000029
      f-1     :     0.000618
      f+2     :     0.000550
      f-2     :     0.000203
      f+3     :     0.000937
      f-3     :     0.000371
 18 C s       :     3.131976  s :     3.131976
      pz      :     0.861532  p :     2.981804
      px      :     1.016329
      py      :     1.103943
      dz2     :     0.010560  d :     0.062234
      dxz     :     0.013423
      dyz     :     0.017398
      dx2y2   :     0.010433
      dxy     :     0.010421
      f0      :     0.000398  f :     0.003584
      f+1     :     0.000880
      f-1     :     0.000360
      f+2     :     0.000799
      f-2     :     0.000533
      f+3     :     0.000202
      f-3     :     0.000412
 19 H s       :     0.827763  s :     0.827763
      pz      :     0.003973  p :     0.023324
      px      :     0.013519
      py      :     0.005832
 20 H s       :     0.817181  s :     0.817181
      pz      :     0.008624  p :     0.023353
      px      :     0.004045
      py      :     0.010684
 21 H s       :     0.819575  s :     0.819575
      pz      :     0.006874  p :     0.023159
      px      :     0.006699
      py      :     0.009586
 22 C s       :     3.257542  s :     3.257542
      pz      :     0.944302  p :     2.710627
      px      :     0.898961
      py      :     0.867364
      dz2     :     0.034578  d :     0.113276
      dxz     :     0.030477
      dyz     :     0.039324
      dx2y2   :     0.004940
      dxy     :     0.003957
      f0      :     0.004382  f :     0.016953
      f+1     :     0.004567
      f-1     :     0.004651
      f+2     :     0.001657
      f-2     :     0.001502
      f+3     :     0.000087
      f-3     :     0.000106
 23 N s       :     3.681668  s :     3.681668
      pz      :     1.266269  p :     3.452287
      px      :     1.107075
      py      :     1.078944
      dz2     :     0.013103  d :     0.054674
      dxz     :     0.018297
      dyz     :     0.019740
      dx2y2   :     0.001787
      dxy     :     0.001747
      f0      :     0.000836  f :     0.003136
      f+1     :     0.000855
      f-1     :     0.000953
      f+2     :     0.000243
      f-2     :     0.000232
      f+3     :     0.000009
      f-3     :     0.000008
 24 C s       :     3.173787  s :     3.173787
      pz      :     0.906957  p :     2.980726
      px      :     1.053764
      py      :     1.020005
      dz2     :     0.008958  d :     0.062330
      dxz     :     0.016223
      dyz     :     0.017978
      dx2y2   :     0.004578
      dxy     :     0.014593
      f0      :     0.000103  f :     0.003648
      f+1     :     0.000680
      f-1     :     0.000393
      f+2     :     0.000220
      f-2     :     0.001725
      f+3     :     0.000485
      f-3     :     0.000044
 25 H s       :     0.838842  s :     0.838842
      pz      :     0.005496  p :     0.023948
      px      :     0.006525
      py      :     0.011927
 26 H s       :     0.814179  s :     0.814179
      pz      :     0.010204  p :     0.022523
      px      :     0.006308
      py      :     0.006011
 27 H s       :     0.804316  s :     0.804316
      pz      :     0.007430  p :     0.025292
      px      :     0.009171
      py      :     0.008691
 28 C s       :     3.234318  s :     3.234318
      pz      :     0.930128  p :     2.674157
      px      :     0.869005
      py      :     0.875024
      dz2     :     0.031812  d :     0.108857
      dxz     :     0.021838
      dyz     :     0.021824
      dx2y2   :     0.016291
      dxy     :     0.017093
      f0      :     0.002986  f :     0.016081
      f+1     :     0.002759
      f-1     :     0.002311
      f+2     :     0.003551
      f-2     :     0.002414
      f+3     :     0.001208
      f-3     :     0.000854
 29 N s       :     3.712222  s :     3.712222
      pz      :     1.213254  p :     3.456842
      px      :     1.115015
      py      :     1.128574
      dz2     :     0.016899  d :     0.054727
      dxz     :     0.009788
      dyz     :     0.010091
      dx2y2   :     0.010225
      dxy     :     0.007723
      f0      :     0.000565  f :     0.003020
      f+1     :     0.000514
      f-1     :     0.000370
      f+2     :     0.000711
      f-2     :     0.000424
      f+3     :     0.000253
      f-3     :     0.000184
 30 C s       :     3.177096  s :     3.177096
      pz      :     1.085623  p :     2.954449
      px      :     0.855721
      py      :     1.013105
      dz2     :     0.013606  d :     0.061890
      dxz     :     0.004213
      dyz     :     0.016867
      dx2y2   :     0.007571
      dxy     :     0.019633
      f0      :     0.000104  f :     0.003613
      f+1     :     0.000287
      f-1     :     0.001642
      f+2     :     0.000091
      f-2     :     0.000124
      f+3     :     0.000288
      f-3     :     0.001076
 31 H s       :     0.804231  s :     0.804231
      pz      :     0.011645  p :     0.022636
      px      :     0.003476
      py      :     0.007515
 32 H s       :     0.807083  s :     0.807083
      pz      :     0.004626  p :     0.024807
      px      :     0.010727
      py      :     0.009454
 33 H s       :     0.825681  s :     0.825681
      pz      :     0.011519  p :     0.021615
      px      :     0.003374
      py      :     0.006723
 34 C s       :     3.271377  s :     3.271377
      pz      :     0.855790  p :     2.610520
      px      :     0.878026
      py      :     0.876705
      dz2     :     0.007782  d :     0.112663
      dxz     :     0.031906
      dyz     :     0.011466
      dx2y2   :     0.034728
      dxy     :     0.026781
      f0      :     0.001878  f :     0.016467
      f+1     :     0.001805
      f-1     :     0.000722
      f+2     :     0.001286
      f-2     :     0.002558
      f+3     :     0.005582
      f-3     :     0.002635
 35 N s       :     3.796977  s :     3.796977
      pz      :     1.088035  p :     3.427781
      px      :     1.199595
      py      :     1.140151
      dz2     :     0.004042  d :     0.054265
      dxz     :     0.016318
      dyz     :     0.004719
      dx2y2   :     0.016441
      dxy     :     0.012745
      f0      :     0.000299  f :     0.002893
      f+1     :     0.000300
      f-1     :     0.000114
      f+2     :     0.000297
      f-2     :     0.000453
      f+3     :     0.001026
      f-3     :     0.000404


                     *******************************
                     * LOEWDIN POPULATION ANALYSIS *
                     *******************************

----------------------
LOEWDIN ATOMIC CHARGES
----------------------
   0 C :   -0.244262
   1 H :    0.138650
   2 H :    0.131708
   3 H :    0.151603
   4 C :   -0.184215
   5 N :   -0.012321
   6 C :   -0.241560
   7 H :    0.155004
   8 H :    0.147601
   9 H :    0.145305
  10 C :   -0.178304
  11 N :    0.005756
  12 C :   -0.245375
  13 H :    0.144975
  14 H :    0.143712
  15 H :    0.138414
  16 C :   -0.163871
  17 N :   -0.007173
  18 C :   -0.233908
  19 H :    0.130767
  20 H :    0.134012
  21 H :    0.139558
  22 C :   -0.185310
  23 N :    0.002922
  24 C :   -0.239950
  25 H :    0.130903
  26 H :    0.141741
  27 H :    0.123539
  28 C :   -0.169867
  29 N :   -0.011854
  30 C :   -0.238542
  31 H :    0.145308
  32 H :    0.127321
  33 H :    0.142032
  34 C :   -0.167005
  35 N :    0.002684

-------------------------------
LOEWDIN REDUCED ORBITAL CHARGES
-------------------------------
  0 C s       :     2.816503  s :     2.816503
      pz      :     1.071519  p :     3.147374
      px      :     1.044316
      py      :     1.031539
      dz2     :     0.023779  d :     0.254893
      dxz     :     0.055135
      dyz     :     0.066228
      dx2y2   :     0.074372
      dxy     :     0.035378
      f0      :     0.003331  f :     0.025492
      f+1     :     0.001350
      f-1     :     0.005043
      f+2     :     0.004771
      f-2     :     0.002272
      f+3     :     0.005357
      f-3     :     0.003367
  1 H s       :     0.782807  s :     0.782807
      pz      :     0.037045  p :     0.078543
      px      :     0.013235
      py      :     0.028263
  2 H s       :     0.805790  s :     0.805790
      pz      :     0.017838  p :     0.062502
      px      :     0.033422
      py      :     0.011242
  3 H s       :     0.791323  s :     0.791323
      pz      :     0.020693  p :     0.057074
      px      :     0.025297
      py      :     0.011084
  4 C s       :     2.854118  s :     2.854118
      pz      :     0.941563  p :     2.823715
      px      :     0.826045
      py      :     1.056106
      dz2     :     0.090576  d :     0.446064
      dxz     :     0.051280
      dyz     :     0.128360
      dx2y2   :     0.085239
      dxy     :     0.090608
      f0      :     0.007484  f :     0.060319
      f+1     :     0.002061
      f-1     :     0.014964
      f+2     :     0.012070
      f-2     :     0.010594
      f+3     :     0.006419
      f-3     :     0.006727
  5 N s       :     3.314298  s :     3.314298
      pz      :     1.207218  p :     3.578077
      px      :     1.062008
      py      :     1.308851
      dz2     :     0.024674  d :     0.106430
      dxz     :     0.014045
      dyz     :     0.033762
      dx2y2   :     0.017305
      dxy     :     0.016645
      f0      :     0.001577  f :     0.013516
      f+1     :     0.000479
      f-1     :     0.003838
      f+2     :     0.003100
      f-2     :     0.002382
      f+3     :     0.001060
      f-3     :     0.001080
  6 C s       :     2.843731  s :     2.843731
      pz      :     1.064643  p :     3.134570
      px      :     1.075303
      py      :     0.994624
      dz2     :     0.046573  d :     0.241251
      dxz     :     0.030346
      dyz     :     0.047990
      dx2y2   :     0.063426
      dxy     :     0.052916
      f0      :     0.002484  f :     0.022008
      f+1     :     0.002190
      f-1     :     0.003693
      f+2     :     0.003057
      f-2     :     0.001991
      f+3     :     0.003582
      f-3     :     0.005012
  7 H s       :     0.789212  s :     0.789212
      pz      :     0.010902  p :     0.055785
      px      :     0.033486
      py      :     0.011398
  8 H s       :     0.792529  s :     0.792529
      pz      :     0.035223  p :     0.059871
      px      :     0.013344
      py      :     0.011304
  9 H s       :     0.794825  s :     0.794825
      pz      :     0.025000  p :     0.059869
      px      :     0.022927
      py      :     0.011942
 10 C s       :     2.849064  s :     2.849064
      pz      :     0.817370  p :     2.833888
      px      :     0.830510
      py      :     1.186008
      dz2     :     0.038545  d :     0.435158
      dxz     :     0.002047
      dyz     :     0.139963
      dx2y2   :     0.117365
      dxy     :     0.137237
      f0      :     0.006900  f :     0.060193
      f+1     :     0.001296
      f-1     :     0.008543
      f+2     :     0.010640
      f-2     :     0.001090
      f+3     :     0.016551
      f-3     :     0.015174
 11 N s       :     3.287190  s :     3.287190
      pz      :     1.039443  p :     3.578125
      px      :     1.047176
      py      :     1.491506
      dz2     :     0.011614  d :     0.112828
      dxz     :     0.001028
      dyz     :     0.032144
      dx2y2   :     0.034432
      dxy     :     0.033609
      f0      :     0.001641  f :     0.016100
      f+1     :     0.000347
      f-1     :     0.002651
      f+2     :     0.002459
      f-2     :     0.000306
      f+3     :     0.004270
      f-3     :     0.004427
 12 C s       :     2.817162  s :     2.817162
      pz      :     1.084926  p :     3.159341
      px      :     1.078830
      py      :     0.995585
      dz2     :     0.028900  d :     0.246100
      dxz     :     0.034606
      dyz     :     0.066024
      dx2y2   :     0.066135
      dxy     :     0.050436
      f0      :     0.001930  f :     0.022772
      f+1     :     0.002143
      f-1     :     0.004412
      f+2     :     0.003546
      f-2     :     0.002176
      f+3     :     0.003628
      f-3     :     0.004937
 13 H s       :     0.796290  s :     0.796290
      pz      :     0.026246  p :     0.058735
      px      :     0.022704
      py      :     0.009784
 14 H s       :     0.791373  s :     0.791373
      pz      :     0.014760  p :     0.064915
      px      :     0.035521
      py      :     0.014634
 15 H s       :     0.793128  s :     0.793128
      pz      :     0.028941  p :     0.068458
      px      :     0.017216
      py      :     0.022300
 16 C s       :     2.854745  s :     2.854745
      pz      :     0.844808  p :     2.822195
      px      :     0.819012
      py      :     1.158374
      dz2     :     0.050472  d :     0.429540
      dxz     :     0.011736
      dyz     :     0.134393
      dx2y2   :     0.106764
      dxy     :     0.126175
      f0      :     0.005321  f :     0.057392
      f+1     :     0.000404
      f-1     :     0.011039
      f+2     :     0.011511
      f-2     :     0.003213
      f+3     :     0.013751
      f-3     :     0.012154
 17 N s       :     3.309012  s :     3.309012
      pz      :     1.075610  p :     3.574287
      px      :     1.037514
      py      :     1.461164
      dz2     :     0.013523  d :     0.109730
      dxz     :     0.002571
      dyz     :     0.032484
      dx2y2   :     0.031788
      dxy     :     0.029365
      f0      :     0.001339  f :     0.014144
      f+1     :     0.000104
      f-1     :     0.002640
      f+2     :     0.002896
      f-2     :     0.000691
      f+3     :     0.003160
      f-3     :     0.003312
 18 C s       :     2.810565  s :     2.810565
      pz      :     1.015948  p :     3.151424
      px      :     1.056918
      py      :     1.078558
      dz2     :     0.055665  d :     0.248377
      dxz     :     0.052848
      dyz     :     0.072264
      dx2y2   :     0.035142
      dxy     :     0.032458
      f0      :     0.005343  f :     0.023542
      f+1     :     0.005712
      f-1     :     0.002460
      f+2     :     0.003082
      f-2     :     0.002953
      f+3     :     0.001777
      f-3     :     0.002215
[...]
 13 H s       :     0.782466  s :     0.782466
      pz      :     0.027842  p :     0.063636
      px      :     0.024194
      py      :     0.011600
 14 H s       :     0.778829  s :     0.778829
      pz      :     0.016431  p :     0.069731
      px      :     0.037019
      py      :     0.016282
 15 H s       :     0.782170  s :     0.782170
      pz      :     0.030549  p :     0.073120
      px      :     0.018901
      py      :     0.023670
 16 C s       :     2.855516  s :     2.855516
      pz      :     0.862703  p :     2.835797
      px      :     0.836759
      py      :     1.136334
      dz2     :     0.053345  d :     0.432659
      dxz     :     0.015205
      dyz     :     0.130842
      dx2y2   :     0.113720
      dxy     :     0.119547
      f0      :     0.006119  f :     0.064620
      f+1     :     0.000762
      f-1     :     0.012240
      f+2     :     0.012731
      f-2     :     0.003931
      f+3     :     0.015033
      f-3     :     0.013803
 17 N s       :     3.302253  s :     3.302253
      pz      :     1.054893  p :     3.509548
      px      :     1.021446
      py      :     1.433208
      dz2     :     0.018992  d :     0.136927
      dxz     :     0.007630
      dyz     :     0.037912
      dx2y2   :     0.038443
      dxy     :     0.033950
      f0      :     0.001893  f :     0.019052
      f+1     :     0.000435
      f-1     :     0.003505
      f+2     :     0.003699
      f-2     :     0.001238
      f+3     :     0.004138
      f-3     :     0.004145
 18 C s       :     2.813988  s :     2.813988
      pz      :     1.023800  p :     3.165525
      px      :     1.061438
      py      :     1.080287
      dz2     :     0.058952  d :     0.263604
      dxz     :     0.054446
      dyz     :     0.075945
      dx2y2   :     0.038426
      dxy     :     0.035836
      f0      :     0.006471  f :     0.029217
      f+1     :     0.006256
      f-1     :     0.003400
      f+2     :     0.003944
      f-2     :     0.003858
      f+3     :     0.002420
      f-3     :     0.002867
 19 H s       :     0.789041  s :     0.789041
      pz      :     0.015645  p :     0.071899
      px      :     0.036242
      py      :     0.020012
 20 H s       :     0.787925  s :     0.787925
      pz      :     0.023642  p :     0.070545
      px      :     0.014998
      py      :     0.031905
 21 H s       :     0.783747  s :     0.783747
      pz      :     0.019059  p :     0.068540
      px      :     0.021435
      py      :     0.028046
 22 C s       :     2.848111  s :     2.848111
      pz      :     1.136164  p :     2.853811
      px      :     0.872406
      py      :     0.845241
      dz2     :     0.155729  d :     0.435629
      dxz     :     0.117138
      dyz     :     0.117801
      dx2y2   :     0.023287
      dxy     :     0.021672
      f0      :     0.021521  f :     0.069135
      f+1     :     0.019279
      f-1     :     0.016099
      f+2     :     0.005562
      f-2     :     0.005362
      f+3     :     0.000632
      f-3     :     0.000681
 23 N s       :     3.283855  s :     3.283855
      pz      :     1.442187  p :     3.516423
      px      :     1.052277
      py      :     1.021959
      dz2     :     0.050621  d :     0.140701
      dxz     :     0.038132
      dyz     :     0.036595
      dx2y2   :     0.007667
      dxy     :     0.007685
      f0      :     0.007357  f :     0.021753
      f+1     :     0.005736
      f-1     :     0.005058
      f+2     :     0.001455
      f-2     :     0.001469
      f+3     :     0.000339
      f-3     :     0.000338
 24 C s       :     2.814365  s :     2.814365
      pz      :     1.034963  p :     3.171480
      px      :     1.081472
      py      :     1.055045
      dz2     :     0.049777  d :     0.263435
      dxz     :     0.066617
      dyz     :     0.068707
      dx2y2   :     0.022968
      dxy     :     0.055366
      f0      :     0.005466  f :     0.029062
      f+1     :     0.004178
      f-1     :     0.004669
      f+2     :     0.003682
      f-2     :     0.005198
      f+3     :     0.003602
      f-3     :     0.002267
 25 H s       :     0.787064  s :     0.787064
      pz      :     0.019578  p :     0.073091
      px      :     0.021716
      py      :     0.031797
 26 H s       :     0.783755  s :     0.783755
      pz      :     0.026551  p :     0.066183
      px      :     0.021432
      py      :     0.018200
 27 H s       :     0.792857  s :     0.792857
      pz      :     0.021732  p :     0.077544
      px      :     0.028035
      py      :     0.027777
 28 C s       :     2.862595  s :     2.862595
      pz      :     1.017684  p :     2.845575
      px      :     0.928971
      py      :     0.898920
      dz2     :     0.107890  d :     0.422285
      dxz     :     0.108998
      dyz     :     0.087848
      dx2y2   :     0.055008
      dxy     :     0.062541
      f0      :     0.009717  f :     0.064044
      f+1     :     0.012764
      f-1     :     0.009332
      f+2     :     0.011524
      f-2     :     0.012708
      f+3     :     0.004184
      f-3     :     0.003816
 29 N s       :     3.309925  s :     3.309925
      pz      :     1.268988  p :     3.507674
      px      :     1.140762
      py      :     1.097924
      dz2     :     0.031990  d :     0.135655
      dxz     :     0.034634
      dyz     :     0.027980
      dx2y2   :     0.020060
      dxy     :     0.020991
      f0      :     0.002693  f :     0.018854
      f+1     :     0.003765
      f-1     :     0.002500
      f+2     :     0.003330
      f-2     :     0.003838
      f+3     :     0.001368
      f-3     :     0.001361
 30 C s       :     2.822740  s :     2.822740
      pz      :     1.066755  p :     3.161612
      px      :     1.028462
      py      :     1.066396
      dz2     :     0.046073  d :     0.263540
      dxz     :     0.032259
      dyz     :     0.061804
      dx2y2   :     0.047691
      dxy     :     0.075713
      f0      :     0.002714  f :     0.029143
      f+1     :     0.003971
      f-1     :     0.004673
      f+2     :     0.003565
      f-2     :     0.002585
      f+3     :     0.005633
      f-3     :     0.006001
 31 H s       :     0.780340  s :     0.780340
      pz      :     0.032435  p :     0.066733
      px      :     0.012335
      py      :     0.021963
 32 H s       :     0.789077  s :     0.789077
      pz      :     0.017492  p :     0.076961
      px      :     0.029375
      py      :     0.030094
 33 H s       :     0.785367  s :     0.785367
      pz      :     0.031543  p :     0.063753
      px      :     0.012212
      py      :     0.019997
 34 C s       :     2.855912  s :     2.855912
      pz      :     0.843436  p :     2.832803
      px      :     1.081293
      py      :     0.908074
      dz2     :     0.045960  d :     0.438191
      dxz     :     0.101187
      dyz     :     0.038597
      dx2y2   :     0.130584
      dxy     :     0.121864
      f0      :     0.006708  f :     0.065134
      f+1     :     0.008864
      f-1     :     0.003234
      f+2     :     0.005028
      f-2     :     0.008845
      f+3     :     0.017062
      f-3     :     0.015393
 35 N s       :     3.293717  s :     3.293717
      pz      :     1.030244  p :     3.505572
      px      :     1.361548
      py      :     1.113779
      dz2     :     0.020226  d :     0.140780
      dxz     :     0.031245
      dyz     :     0.013025
      dx2y2   :     0.037610
      dxy     :     0.038673
      f0      :     0.002049  f :     0.019038
      f+1     :     0.002657
      f-1     :     0.001053
      f+2     :     0.001746
      f-2     :     0.002451
      f+3     :     0.004532
      f-3     :     0.004550


                      *****************************
                      * MAYER POPULATION ANALYSIS *
                      *****************************

  NA   - Mulliken gross atomic population
  ZA   - Total nuclear charge
  QA   - Mulliken gross atomic charge
  VA   - Mayer's total valence
  BVA  - Mayer's bonded valence
  FA   - Mayer's free valence

  ATOM       NA         ZA         QA         VA         BVA        FA
  0 C      6.3062     6.0000    -0.3062     3.9604     3.6734     0.2870
  1 H      0.8002     1.0000     0.1998     0.9625     0.9162     0.0463
  2 H      0.8461     1.0000     0.1539     0.9675     0.9204     0.0471
  3 H      0.8369     1.0000     0.1631     0.9686     0.9193     0.0493
  4 C      6.0531     6.0000    -0.0531     4.0818     3.6488     0.4331
  5 N      7.1653     7.0000    -0.1653     3.2556     2.7655     0.4901
  6 C      6.3043     6.0000    -0.3043     3.9190     3.6308     0.2882
  7 H      0.8011     1.0000     0.1989     0.9583     0.9105     0.0477
  8 H      0.8217     1.0000     0.1783     0.9634     0.9161     0.0472
  9 H      0.8280     1.0000     0.1720     0.9598     0.9120     0.0479
 10 C      6.0875     6.0000    -0.0875     4.0254     3.6135     0.4119
 11 N      7.1417     7.0000    -0.1417     3.2583     2.7933     0.4650
 12 C      6.3061     6.0000    -0.3061     3.9237     3.6359     0.2878
 13 H      0.8306     1.0000     0.1694     0.9654     0.9173     0.0481
 14 H      0.8075     1.0000     0.1925     0.9623     0.9164     0.0459
 15 H      0.8115     1.0000     0.1885     0.9636     0.9153     0.0483
 16 C      6.0935     6.0000    -0.0935     4.0881     3.6602     0.4278
 17 N      7.1448     7.0000    -0.1448     3.2676     2.7870     0.4806
 18 C      6.2936     6.0000    -0.2936     3.9485     3.6674     0.2811
 19 H      0.8333     1.0000     0.1667     0.9598     0.9141     0.0457
 20 H      0.8236     1.0000     0.1764     0.9713     0.9265     0.0448
 21 H      0.8254     1.0000     0.1746     0.9741     0.9278     0.0462
 22 C      6.1492     6.0000    -0.1492     4.1734     3.7658     0.4076
 23 N      7.0813     7.0000    -0.0813     3.3238     2.8710     0.4529
 24 C      6.3193     6.0000    -0.3193     3.9282     3.6435     0.2847
 25 H      0.8423     1.0000     0.1577     0.9663     0.9200     0.0463
 26 H      0.8212     1.0000     0.1788     0.9672     0.9199     0.0473
 27 H      0.8243     1.0000     0.1757     0.9636     0.9158     0.0478
 28 C      6.0915     6.0000    -0.0915     4.1325     3.6999     0.4326
 29 N      7.1145     7.0000    -0.1145     3.3228     2.8429     0.4799
 30 C      6.2880     6.0000    -0.2880     3.8928     3.6098     0.2831
 31 H      0.8143     1.0000     0.1857     0.9743     0.9277     0.0466
 32 H      0.8182     1.0000     0.1818     0.9756     0.9310     0.0446
 33 H      0.8323     1.0000     0.1677     0.9630     0.9151     0.0479
 34 C      6.0487     6.0000    -0.0487     3.9239     3.4886     0.4353
 35 N      7.1930     7.0000    -0.1930     3.1414     2.6533     0.4881

  Mayer bond orders larger than 0.100000
B(  0-C ,  1-H ) :   0.9024 B(  0-C ,  2-H ) :   0.9206 B(  0-C ,  3-H ) :   0.9106 
B(  0-C ,  4-C ) :   0.9411 B(  4-C ,  5-N ) :   2.7202 B(  6-C ,  7-H ) :   0.9083 
B(  6-C ,  8-H ) :   0.9167 B(  6-C ,  9-H ) :   0.9156 B(  6-C , 10-C ) :   0.8856 
B( 10-C , 11-N ) :   2.7470 B( 12-C , 13-H ) :   0.9101 B( 12-C , 14-H ) :   0.9114 
B( 12-C , 15-H ) :   0.9088 B( 12-C , 16-C ) :   0.9133 B( 16-C , 17-N ) :   2.7457 
B( 18-C , 19-H ) :   0.9198 B( 18-C , 20-H ) :   0.9177 B( 18-C , 21-H ) :   0.9158 
B( 18-C , 22-C ) :   0.9252 B( 22-C , 23-N ) :   2.8420 B( 24-C , 25-H ) :   0.9213 
B( 24-C , 26-H ) :   0.9240 B( 24-C , 27-H ) :   0.9133 B( 24-C , 28-C ) :   0.8998 
B( 28-C , 29-N ) :   2.8181 B( 30-C , 31-H ) :   0.9079 B( 30-C , 32-H ) :   0.9231 
B( 30-C , 33-H ) :   0.9185 B( 30-C , 34-C ) :   0.8919 B( 34-C , 35-N ) :   2.5981 



----------------------------------
MP2 DERIVATIVE INTEGRAL GENERATION
----------------------------------


Input Wavefunction Amplitudes       ... orcacalc.mp2tsaa.tmp
Input Correlated Electron Density   ... orcacalc.pmp2re
Input Energy Weighted Density       ... orcacalc.wmp2.tmp
Input SCF Electron Density          ... orcacalc.scfp

One-Electron Terms    ...
                        ... One-Electron Terms done
Prescreening matrices              ... done

Batch handling in the gradient evaluation:
Memory available                      ... 8000.0 MB
Memory per occupied orbital in Q2     ...  162.4 MB
Memory per occupied orbital in Q3     ...    0.2 MB
Total memory requirement per |i>      ...  162.7 MB
Max. Number of orbitals possible      ...     49
Number of orbitals treated per batch  ...     48
Number of batches to be done          ...      1
Batch   0: i=   18 ...    65

---------------------------------------
MP2 TOTAL ENERGY:     -794.886516146 Eh
---------------------------------------

The final MP2 gradient
  0:  -0.03639284   0.01969716   0.03222372
  1:  -0.00217734  -0.00894989  -0.01163244
  2:   0.00170011   0.00225197   0.00618175
  3:   0.02007653  -0.00879635  -0.00094098
  4:   0.01974300  -0.00496157  -0.03051538
  5:  -0.00571606   0.00407615   0.01229425
  6:  -0.01093882  -0.01003785  -0.00660654
  7:   0.02584681  -0.02008130   0.00699536
  8:  -0.00072042   0.00081054  -0.01428874
  9:  -0.00498569   0.00449006   0.01232993
 10:  -0.01930487   0.09053520   0.00263717
 11:   0.00929505  -0.06493797  -0.00109741
 12:   0.00863723  -0.00560993  -0.00605438
 13:  -0.01428666  -0.00935772   0.00648332
 14:  -0.00820105  -0.00980511  -0.01298948
 15:   0.01264777  -0.00264247   0.01978522
 16:   0.00088637   0.03345795  -0.00862989
 17:   0.00110055  -0.00475000   0.00055466
 18:   0.02429191   0.01319770  -0.01678736
 19:  -0.02161907   0.00686176  -0.00574255
 20:   0.00636703  -0.01614654  -0.00129735
 21:   0.00528702   0.00201642   0.00328406
 22:  -0.04229686   0.00410266   0.10136471
 23:   0.02990539  -0.01117225  -0.08062429
 24:  -0.03368676   0.00027425   0.02309679
 25:   0.02496321  -0.01585900   0.00806861
 26:  -0.01357291   0.01321213   0.01127156
 27:   0.02455968   0.01534514  -0.00849228
 28:  -0.00950794  -0.01428148  -0.03509866
 29:   0.00616645   0.00172065   0.00379562
 30:  -0.03500188  -0.01037480   0.00818803
 31:  -0.00889146   0.00043537   0.00580428
 32:   0.02819968   0.02415306   0.00043959
 33:  -0.00143735   0.00271423  -0.01188756
 34:   0.02359793  -0.02503881  -0.00212305
 35:  -0.00453376   0.00345065  -0.00999027

-----------------------------------
NORM OF THE MP2 GRADIENT:  0.231919
-----------------------------------

-------------------------   --------------------
FINAL SINGLE POINT ENERGY      -794.886516145829
-------------------------   --------------------


                            ***************************************
                            *     ORCA property calculations      *
                            ***************************************

                                    ---------------------
                                    Active property flags
                                    ---------------------
   (+) Dipole Moment


------------------------------------------------------------------------------
                       ORCA ELECTRIC PROPERTIES CALCULATION
------------------------------------------------------------------------------

Dipole Moment Calculation                       ... on
Quadrupole Moment Calculation                   ... off
Polarizability Calculation                      ... off
GBWName                                         ... orcacalc.gbw
Electron density file                           ... orcacalc.scfp
The origin for moment calculation is the CENTER OF MASS  = (-0.283779, -0.915590 -0.074460)

-------------
DIPOLE MOMENT
-------------
                                X             Y             Z
Electronic contribution:      2.85561       0.96977       0.96841
Nuclear contribution   :     -4.97562      -1.82506      -1.23901
                        -----------------------------------------
Total Dipole Moment    :     -2.12001      -0.85530      -0.27059
                        -----------------------------------------
Magnitude (a.u.)       :      2.30200
Magnitude (Debye)      :      5.85121



--------------------
Rotational spectrum 
--------------------
 
Rotational constants in cm-1:     0.008686     0.007785     0.006406 
Rotational constants in MHz :   260.402817   233.397175   192.055988 

 Dipole components along the rotational axes: 
x,y,z [a.u.] :    -0.656808     1.601168    -1.517910 
x,y,z [Debye]:    -1.669474     4.069845    -3.858220 

 

                         *** MP2 UNRELAXED DENSITY ***

------------------------------------------------------------------------------
                       ORCA ELECTRIC PROPERTIES CALCULATION
------------------------------------------------------------------------------

Dipole Moment Calculation                       ... on
Quadrupole Moment Calculation                   ... off
Polarizability Calculation                      ... off
GBWName                                         ... orcacalc.gbw
Electron density file                           ... orcacalc.pmp2ur
The origin for moment calculation is the CENTER OF MASS  = (-0.283779, -0.915590 -0.074460)

-------------
DIPOLE MOMENT
-------------
                                X             Y             Z
Electronic contribution:      2.90186       0.98408       0.98183
Nuclear contribution   :     -4.97562      -1.82506      -1.23901
                        -----------------------------------------
Total Dipole Moment    :     -2.07375      -0.84098      -0.25717
                        -----------------------------------------
Magnitude (a.u.)       :      2.25252
Magnitude (Debye)      :      5.72545



--------------------
Rotational spectrum 
--------------------
 
Rotational constants in cm-1:     0.008686     0.007785     0.006406 
Rotational constants in MHz :   260.402817   233.397175   192.055988 

 Dipole components along the rotational axes: 
x,y,z [a.u.] :    -0.646320     1.571307    -1.478889 
x,y,z [Debye]:    -1.642814     3.993944    -3.759036 

 

                           *** MP2 RELAXED DENSITY ***

------------------------------------------------------------------------------
                       ORCA ELECTRIC PROPERTIES CALCULATION
------------------------------------------------------------------------------

Dipole Moment Calculation                       ... on
Quadrupole Moment Calculation                   ... off
Polarizability Calculation                      ... off
GBWName                                         ... orcacalc.gbw
Electron density file                           ... orcacalc.pmp2re
The origin for moment calculation is the CENTER OF MASS  = (-0.283779, -0.915590 -0.074460)

-------------
DIPOLE MOMENT
-------------
                                X             Y             Z
Electronic contribution:      3.05987       1.02761       0.98666
Nuclear contribution   :     -4.97562      -1.82506      -1.23901
                        -----------------------------------------
Total Dipole Moment    :     -1.91575      -0.79745      -0.25235
                        -----------------------------------------
Magnitude (a.u.)       :      2.09038
Magnitude (Debye)      :      5.31333



--------------------
Rotational spectrum 
--------------------
 
Rotational constants in cm-1:     0.008686     0.007785     0.006406 
Rotational constants in MHz :   260.402817   233.397175   192.055988 

 Dipole components along the rotational axes: 
x,y,z [a.u.] :    -0.618413     1.445011    -1.378119 
x,y,z [Debye]:    -1.571881     3.672927    -3.502901 

 

Timings for individual modules:

Sum of individual times         ...     1757.009 sec (=  29.283 min)
GTO integral calculation        ...        3.025 sec (=   0.050 min)   0.2 %
SCF iterations                  ...      104.879 sec (=   1.748 min)   6.0 %
MP2 module                      ...     1649.105 sec (=  27.485 min)  93.9 %
                             ****ORCA TERMINATED NORMALLY****
TOTAL RUN TIME: 0 days 0 hours 29 minutes 18 seconds 954 msec
