3
energy=-2076.5667340876 Properties=species:S:1:pos:R:3:forces:R:3 pbc="T T T" Lattice="200.000 0.000 0.000 0.000 200.000 0.000 0.000 0.000 200.000"
O    0.0463284618   -0.0455945126    0.0058627146    0.9784277243    0.8259859781    0.8562072411
H    0.0310700353    0.8622378095    0.3694568662   -0.0249607856   -0.7591892272   -0.3240289564
H   -0.7665146003   -0.1384443745   -0.4625249586   -0.9534669387   -0.0667962367   -0.5321782847
3
energy=-2076.5705054768 Properties=species:S:1:pos:R:3:forces:R:3 pbc="T T T" Lattice="200.000 0.000 0.000 0.000 200.000 0.000 0.000 0.000 200.000"
O    0.0312044732   -0.0116838997    0.0565829362   -0.9923250521    0.1098550187    0.0305724757
H   -0.9333313789    0.1198860190   -0.0869288266    1.0970995706   -0.1319454245    0.0394340406
H    0.4379736806    0.0655909029   -0.8113011440   -0.1047750327    0.0220898916   -0.0700065163
3
energy=-2076.5576180556 Properties=species:S:1:pos:R:3:forces:R:3 pbc="T T T" Lattice="200.000 0.000 0.000 0.000 200.000 0.000 0.000 0.000 200.000"
O    0.0086479448   -0.0516239518   -0.0335705389    0.0678874129   -1.5872516284   -0.2559209428
H    0.0885010416    0.8248249239   -0.3521634586    0.0791123359    1.3829656400   -0.3189494846
H   -0.2257834749   -0.0053167143    0.8850814410   -0.1470002631    0.2042859884    0.5748704274
3
energy=-2076.5548398275 Properties=species:S:1:pos:R:3:forces:R:3 pbc="T T T" Lattice="200.000 0.000 0.000 0.000 200.000 0.000 0.000 0.000 200.000"
O    0.0134564542   -0.0547873099   -0.0241890206    0.0429903907   -0.3165475599    0.0647866623
H   -0.1731345896    0.1038917720    0.9146290737    0.0467693984    0.3706235198   -0.6473272052
H   -0.0404808793    0.7658333981   -0.5306386927   -0.0897603034   -0.0540759599    0.5825400287
3
energy=-2076.5588550580 Properties=species:S:1:pos:R:3:forces:R:3 pbc="T T T" Lattice="200.000 0.000 0.000 0.000 200.000 0.000 0.000 0.000 200.000"
O    0.0067375930   -0.0412820572   -0.0471701180    0.7754278018   -1.4305655048   -0.3596562213
H   -0.5087789295    0.7365633765   -0.0725154504   -0.8548841513    1.3544155941    0.0564552590
H    0.4018225157   -0.0812283316    0.8213209480    0.0794563496    0.0761493964    0.3032009624
3
energy=-2076.5734342111 Properties=species:S:1:pos:R:3:forces:R:3 pbc="T T T" Lattice="200.000 0.000 0.000 0.000 200.000 0.000 0.000 0.000 200.000"
O   -0.0620277436    0.0000193052    0.0210594552    0.4878730317   -0.1335071127   -0.2418122703
H    0.6086837653    0.6851772840    0.1849860716   -0.2826424200   -0.4789024521   -0.1777619720
H    0.3759802003   -0.6854837450   -0.5192959385   -0.2052306118    0.6124095648    0.4195737281
3
energy=-2076.5643900172 Properties=species:S:1:pos:R:3:forces:R:3 pbc="T T T" Lattice="200.000 0.000 0.000 0.000 200.000 0.000 0.000 0.000 200.000"
O    0.0122053981    0.0374784564   -0.0478413220   -0.1081519199    0.4951250859   -0.0907311520
H    0.2724098337   -0.8854049380    0.0034762671   -0.1781532939   -0.0000138840    0.3579824330
H   -0.4661653209    0.2904504330    0.7559843071    0.2863052138   -0.4951106877   -0.2672507669
3
energy=-2076.5727963218 Properties=species:S:1:pos:R:3:forces:R:3 pbc="T T T" Lattice="200.000 0.000 0.000 0.000 200.000 0.000 0.000 0.000 200.000"
O    0.0204776899   -0.0516870436   -0.0287772957   -0.1757220586   -0.4836430525   -0.3781177718
H    0.5526087234    0.5240796345    0.5170881912   -0.0895746697    0.3322055793    0.1974118865
H   -0.8776833133    0.2964301305   -0.0602608999    0.2652967283    0.1514379875    0.1807058854
3
energy=-2076.5670380932 Properties=species:S:1:pos:R:3:forces:R:3 pbc="T T T" Lattice="200.000 0.000 0.000 0.000 200.000 0.000 0.000 0.000 200.000"
O   -0.0119276586   -0.0173504452   -0.0586681595   -0.1648216088    0.1079380041   -1.2205366999
H    0.1897602979    0.8644649825    0.2398789363    0.1045472330    0.3101177446    0.3280049106
H   -0.0004138060   -0.5890340680    0.6914530653    0.0602748901   -0.4180557487    0.8925317893
3
energy=-2076.5573597379 Properties=species:S:1:pos:R:3:forces:R:3 pbc="T T T" Lattice="200.000 0.000 0.000 0.000 200.000 0.000 0.000 0.000 200.000"
O    0.0481189981   -0.0398803480    0.0051926548    1.1247615574   -1.0504947228    0.1195352228
H   -0.8587300936   -0.2650468425   -0.1078383333   -1.0881680718   -0.1694537086   -0.1340629852
H    0.0948615282    0.8981303515    0.0254071532   -0.0365939998    1.2199484315    0.0145277624
3
energy=-2076.5570651474 Properties=species:S:1:pos:R:3:forces:R:3 pbc="T T T" Lattice="200.000 0.000 0.000 0.000 200.000 0.000 0.000 0.000 200.000"
O    0.0005402770   -0.0462435151    0.0453495895   -0.4555228951   -0.1697555562   -0.9851753279
H   -0.3832643093   -0.1043001083   -0.8655145044    0.6193021787    0.3223757369    1.2522121790
H    0.3746876419    0.8383961809    0.1456091194   -0.1637792835   -0.1526201808   -0.2670363368
3
energy=-2076.5582940136 Properties=species:S:1:pos:R:3:forces:R:3 pbc="T T T" Lattice="200.000 0.000 0.000 0.000 200.000 0.000 0.000 0.000 200.000"
O    0.0210994021    0.0478119148   -0.0316384241    0.0355537314    0.7449571417    0.0288009855
H    0.1140099727   -0.8628590844   -0.3095682635   -0.2077821748   -0.2687306939    0.3365661706
H   -0.4489539787    0.1038653369    0.8118147468    0.1722284434   -0.4762264478   -0.3653671561
3
energy=-2076.5696928632 Properties=species:S:1:pos:R:3:forces:R:3 pbc="T T T" Lattice="200.000 0.000 0.000 0.000 200.000 0.000 0.000 0.000 200.000"
O    0.0626591629   -0.0046532329    0.0244498542    0.1599483395    1.1041078841   -0.2634542756
H   -0.3991308874    0.7566533593   -0.3680439999    0.3916700576   -0.2772991530    0.2252960166
H   -0.5955565900   -0.6827852725   -0.0200870039   -0.5516183972   -0.8268087312    0.0381582591
3
energy=-2076.5671752386 Properties=species:S:1:pos:R:3:forces:R:3 pbc="T T T" Lattice="200.000 0.000 0.000 0.000 200.000 0.000 0.000 0.000 200.000"
O    0.0372540684   -0.0381847506    0.0421694186    0.4459059402    1.1618132136    0.2032138383
H   -0.6478580264   -0.3203576435   -0.5499480341   -0.5871263629   -0.4602928061   -0.4667118227
H    0.0564655856    0.9265242677   -0.1194734941    0.1412204227   -0.7015204075    0.2634979844
3
energy=-2076.5512650677 Properties=species:S:1:pos:R:3:forces:R:3 pbc="T T T" Lattice="200.000 0.000 0.000 0.000 200.000 0.000 0.000 0.000 200.000"
O    0.0559103487    0.0256062546    0.0068570882    0.7006637158    0.0987601935   -1.4299114161
H   -0.3482256029   -0.2752023613   -0.8324019183    0.0972843802    0.1943281051    1.0339686989
H   -0.5393273285   -0.1312860050    0.7235485683   -0.7979480960   -0.2930877844    0.3959427172
3
energy=-2076.5512406591 Properties=species:S:1:pos:R:3:forces:R:3 pbc="T T T" Lattice="200.000 0.000 0.000 0.000 200.000 0.000 0.000 0.000 200.000"
O    0.0171901017    0.0363417826   -0.0584523157   -0.3597667788   -0.9041377498    1.3119126846
H    0.1830679978   -0.9060606043    0.1762119699   -0.0257809675    0.8841376510   -0.4920783284
H   -0.4559535274    0.3291503111    0.7516936036    0.3855472321    0.0200000988   -0.8198343562
3
energy=-2076.5542260475 Properties=species:S:1:pos:R:3:forces:R:3 pbc="T T T" Lattice="200.000 0.000 0.000 0.000 200.000 0.000 0.000 0.000 200.000"
O    0.0457372945    0.0426097134   -0.0258104191    0.0436259675   -1.5912394097   -0.9102909143
H   -0.1810615496   -0.8887942021   -0.2886543803    0.3896368291    1.3835251120    0.3339899250
H   -0.5449984860    0.2123831821    0.6983837716   -0.4332627965    0.2077142976    0.5763009893
3
energy=-2076.5694309264 Properties=species:S:1:pos:R:3:forces:R:3 pbc="T T T" Lattice="200.000 0.000 0.000 0.000 200.000 0.000 0.000 0.000 200.000"
O    0.0121769445   -0.0262892196    0.0546517976    0.1547572819   -0.3340876269    0.7094363205
H    0.1924415881   -0.4163902814   -0.7987227510   -0.0805115304    0.1738173852   -0.3535657917
H   -0.3857453871    0.8337204256   -0.0688512181   -0.0742462657    0.1602702417   -0.3558705288
3
energy=-2076.5624173277 Properties=species:S:1:pos:R:3:forces:R:3 pbc="T T T" Lattice="200.000 0.000 0.000 0.000 200.000 0.000 0.000 0.000 200.000"
O    0.0041533226    0.0594760245    0.0311177574    0.9305254977    0.0761241996   -1.2901107566
H    0.4447592532   -0.2525583876   -0.7968061303   -0.5218414208    0.4506660809    1.0311379141
H   -0.5106914781   -0.6915981249    0.3028250079   -0.4086840769   -0.5267907947    0.2589728425
3
energy=-2076.5716931178 Properties=species:S:1:pos:R:3:forces:R:3 pbc="T T T" Lattice="200.000 0.000 0.000 0.000 200.000 0.000 0.000 0.000 200.000"
O    0.0054169474   -0.0543536670   -0.0375650117   -0.3790927342   -0.5862074506   -0.2578533841
H    0.6701238692    0.5878039301    0.1609191759    0.8152125408    0.5793246069    0.1065002431
H   -0.7561155976    0.2750373428    0.4354093570   -0.4361198066    0.0068828437    0.1513536553
3
energy=-2076.5587999005 Properties=species:S:1:pos:R:3:forces:R:3 pbc="T T T" Lattice="200.000 0.000 0.000 0.000 200.000 0.000 0.000 0.000 200.000"
O   -0.0150677191    0.0405411825    0.0429628333   -0.2273045625    0.6658288650    0.2170916258
H   -0.0317425098    0.2108740741   -0.9062588358    0.1476327545   -0.4766409096    0.2101193077
H    0.2709361221   -0.8544480499    0.2242421875    0.0796718080   -0.1891879553   -0.4272109335
3
energy=-2076.5782489938 Properties=species:S:1:pos:R:3:forces:R:3 pbc="T T T" Lattice="200.000 0.000 0.000 0.000 200.000 0.000 0.000 0.000 200.000"
O   -0.0276892540    0.0155749665    0.0599322422    0.1024543548   -0.1454216056   -0.0882078711
H    0.4563427923   -0.7744391818   -0.1999790609    0.0132483814   -0.1505818100    0.1891108222
H   -0.0167876992    0.5271932333   -0.7514197139   -0.1157027362    0.2960034156   -0.1009024368
3
energy=-2076.5522720251 Properties=species:S:1:pos:R:3:forces:R:3 pbc="T T T" Lattice="200.000 0.000 0.000 0.000 200.000 0.000 0.000 0.000 200.000"
O   -0.0271557651    0.0568216632   -0.0212111685   -0.0416045660    1.2842836080    0.4846987475
H   -0.0533138586   -0.7830081603   -0.4281025737   -0.1985740252   -1.4534087296   -0.9624863693
H    0.4844000430   -0.1190114994    0.7648208242    0.2401780770    0.1691251216    0.4777876217
3
energy=-2076.5629552968 Properties=species:S:1:pos:R:3:forces:R:3 pbc="T T T" Lattice="200.000 0.000 0.000 0.000 200.000 0.000 0.000 0.000 200.000"
O    0.0475084754   -0.0342317387    0.0379212253   -0.8786899973    0.6231788883   -0.7748374764
H   -0.1016831228   -0.0420780128   -0.9319166373    0.2877594299   -0.1312054610    0.7913141352
H   -0.6524936552    0.5854922600    0.3299333644    0.5909305674   -0.4919734274   -0.0164766587
3
energy=-2076.5531351974 Properties=species:S:1:pos:R:3:forces:R:3 pbc="T T T" Lattice="200.000 0.000 0.000 0.000 200.000 0.000 0.000 0.000 200.000"
O    0.0350472484    0.0507456284   -0.0264177422    0.6026707395    0.8883516894    0.4599955865
H   -0.1284741511   -0.1724052988    0.8869514482    0.0892275707    0.1403688733    0.5804605203
H   -0.4278859639   -0.6331599012   -0.4675810625   -0.6918988245   -1.0287205627   -1.0404561069
3
energy=-2076.5705449061 Properties=species:S:1:pos:R:3:forces:R:3 pbc="T T T" Lattice="200.000 0.000 0.000 0.000 200.000 0.000 0.000 0.000 200.000"
O    0.0435652321   -0.0499915549   -0.0057244867    0.0733854603    0.6661255703   -1.0722128328
H   -0.1669821160    0.6645416545   -0.6477638213    0.2268047400   -0.7554462150    0.6714539249
H   -0.5245973556    0.1290529496    0.7386376051   -0.3001907146    0.0893206447    0.4007589080
3
energy=-2076.5694329401 Properties=species:S:1:pos:R:3:forces:R:3 pbc="T T T" Lattice="200.000 0.000 0.000 0.000 200.000 0.000 0.000 0.000 200.000"
O   -0.0501160811    0.0099121598   -0.0445909223    0.1136319695    0.6323525851    1.0564406564
H    0.6727951989   -0.6167632070   -0.1070559936    0.1549999940   -0.1973805190   -0.1053165071
H    0.1227762066    0.4594118989    0.8149178608   -0.2686319636   -0.4349720661   -0.9511241493
3
energy=-2076.5530923123 Properties=species:S:1:pos:R:3:forces:R:3 pbc="T T T" Lattice="200.000 0.000 0.000 0.000 200.000 0.000 0.000 0.000 200.000"
O    0.0127211223    0.0594681588   -0.0231140288   -0.3209081512   -0.9543987066   -0.9138333805
H    0.0346908786   -0.1910911207    0.9057595521   -0.0617388764   -0.2116162041   -0.0988131583
H   -0.2366332673   -0.7529405274   -0.5388342060    0.3826470275    1.1660149107    1.0126465388
3
energy=-2076.5701742599 Properties=species:S:1:pos:R:3:forces:R:3 pbc="T T T" Lattice="200.000 0.000 0.000 0.000 200.000 0.000 0.000 0.000 200.000"
O    0.0615359137   -0.0273471671   -0.0085033732   -0.5488128092   -0.7623270017   -0.4219144606
H   -0.1614115758    0.8061527043    0.3856081621    0.0297070424    0.7864609205    0.3914746538
H   -0.8154447991   -0.3720280939   -0.2506207400    0.5191057668   -0.0241339187    0.0304398068
3
energy=-2076.5512469449 Properties=species:S:1:pos:R:3:forces:R:3 pbc="T T T" Lattice="200.000 0.000 0.000 0.000 200.000 0.000 0.000 0.000 200.000"
O    0.0354595918   -0.0477446726   -0.0268727601    1.4449955652    1.2758745573    0.1436249186
H    0.3241469320    0.8599727847    0.2528345624   -0.5588493682   -1.3508463884   -0.3852345859
H   -0.8870528221   -0.1020464770    0.1737590383   -0.8861461970    0.0749713169    0.2416096673
3
energy=-2076.5719316800 Properties=species:S:1:pos:R:3:forces:R:3 pbc="T T T" Lattice="200.000 0.000 0.000 0.000 200.000 0.000 0.000 0.000 200.000"
O    0.0388703993   -0.0182885954    0.0512780005   -0.4667349626    1.0602150361    0.0987586509
H   -0.1624674307   -0.5312938528   -0.7308515701   -0.0547351908   -0.1954655613   -0.2602439960
H   -0.4545835736    0.8216175018   -0.0831648091    0.5214696392   -0.8647499891    0.1614853451
3
energy=-2076.5785061686 Properties=species:S:1:pos:R:3:forces:R:3 pbc="T T T" Lattice="200.000 0.000 0.000 0.000 200.000 0.000 0.000 0.000 200.000"
O   -0.0285694223    0.0497051837   -0.0340982652   -0.3440120859    0.2616051381    0.3936055842
H   -0.1434065940   -0.1956426484    0.8912998245   -0.0823776372    0.1220734161   -0.0476492300
H    0.5969339841   -0.5934059367   -0.3500044130    0.4263897231   -0.3836785542   -0.3459563542
3
energy=-2076.5521121582 Properties=species:S:1:pos:R:3:forces:R:3 pbc="T T T" Lattice="200.000 0.000 0.000 0.000 200.000 0.000 0.000 0.000 200.000"
O   -0.0286102882    0.0499540988    0.0231420905   -0.4467790869    1.3916595688    0.9250840146
H    0.7824223851   -0.3242958444    0.3273408116    0.7926284832   -0.4810097285    0.1910674319
H   -0.3282462666   -0.4687041615   -0.6947116246   -0.3458493963   -0.9106493262   -1.1161514465
3
energy=-2076.5638126732 Properties=species:S:1:pos:R:3:forces:R:3 pbc="T T T" Lattice="200.000 0.000 0.000 0.000 200.000 0.000 0.000 0.000 200.000"
O    0.0401623008    0.0375599230   -0.0331863728   -0.5868276007   -0.3749280610   -0.4678549353
H   -0.7110748129   -0.4861370071   -0.3924732712    0.8116402498    0.5153786954    0.6644846921
H    0.0735154231   -0.1101107455    0.9192927805   -0.2248126491   -0.1404506344   -0.1966292426
3
energy=-2076.5682371901 Properties=species:S:1:pos:R:3:forces:R:3 pbc="T T T" Lattice="200.000 0.000 0.000 0.000 200.000 0.000 0.000 0.000 200.000"
O   -0.0242150624    0.0568586072    0.0099220925   -0.3817954781    0.5656905600    1.0197031891
H    0.2394707544   -0.2815509668   -0.8307582529    0.3287006512   -0.5452240631   -0.7260060531
H    0.1449330293   -0.6210551638    0.6732492682    0.0530948269   -0.0204664969   -0.2936976502
3
energy=-2076.5594620896 Properties=species:S:1:pos:R:3:forces:R:3 pbc="T T T" Lattice="200.000 0.000 0.000 0.000 200.000 0.000 0.000 0.000 200.000"
O   -0.0191120094   -0.0645037293   -0.0102645762    1.4779483684    0.4645119867    0.2611048014
H    0.8844172976    0.3113757395    0.1601857494   -1.2723017521   -0.6134997126   -0.2499297578
H   -0.5810223029    0.7125934424    0.0027600186   -0.2056471305    0.1489877260   -0.0111750436
3
energy=-2076.5698362944 Properties=species:S:1:pos:R:3:forces:R:3 pbc="T T T" Lattice="200.000 0.000 0.000 0.000 200.000 0.000 0.000 0.000 200.000"
O    0.0379622574    0.0535042729   -0.0106873367    0.4045003776   -0.8987086080    0.5760094262
H   -0.8704097889   -0.0716955209   -0.2974803225   -0.0886968950   -0.0589080916   -0.0060714035
H    0.2677751491   -0.7776619842    0.4671372329   -0.3158034826    0.9576166995   -0.5699385370
3
energy=-2076.5769740043 Properties=species:S:1:pos:R:3:forces:R:3 pbc="T T T" Lattice="200.000 0.000 0.000 0.000 200.000 0.000 0.000 0.000 200.000"
O    0.0227735242    0.0536982764   -0.0244406210    0.0868261602    0.5461018378   -0.4362133947
H    0.3167954122   -0.3660563446    0.7784729022    0.0082321587   -0.3366247917    0.3489408910
H   -0.6783153925   -0.4863808827   -0.3904884723   -0.0950583189   -0.2094770461    0.0872725037
3
energy=-2076.5744947205 Properties=species:S:1:pos:R:3:forces:R:3 pbc="T T T" Lattice="200.000 0.000 0.000 0.000 200.000 0.000 0.000 0.000 200.000"
O    0.0217617611   -0.0612430959   -0.0120175662   -0.5620154249    0.4110114397    0.1725647437
H    0.5425524992    0.7559410864   -0.0308792009   -0.2749738471   -0.2560973205    0.0305976726
H   -0.8880111713    0.2162669309    0.2216529366    0.8369897862   -0.1549141192   -0.2031624163
3
energy=-2076.5635978393 Properties=species:S:1:pos:R:3:forces:R:3 pbc="T T T" Lattice="200.000 0.000 0.000 0.000 200.000 0.000 0.000 0.000 200.000"
O   -0.0550321638   -0.0037075059    0.0384297528   -0.2197187792    1.4107186438   -0.6540172161
H    0.2457039443    0.7125372941   -0.5657928907   -0.4049498064   -0.6995432290    0.6635678367
H    0.6279081769   -0.6536822200   -0.0442630393    0.6246685856   -0.7111754148   -0.0095506205
3
energy=-2076.5442348157 Properties=species:S:1:pos:R:3:forces:R:3 pbc="T T T" Lattice="200.000 0.000 0.000 0.000 200.000 0.000 0.000 0.000 200.000"
O    0.0706102174    0.0026798942   -0.0110708312   -1.7506082225   -0.2442779584    0.2729498745
H   -0.5832592736    0.7288308901    0.0978470692    0.8163726227   -0.4000461981   -0.1316651742
H   -0.5376478015   -0.7713730668    0.0778976524    0.9342355999    0.6443241565   -0.1412847003
3
energy=-2076.5408385354 Properties=species:S:1:pos:R:3:forces:R:3 pbc="T T T" Lattice="200.000 0.000 0.000 0.000 200.000 0.000 0.000 0.000 200.000"
O   -0.0349361364   -0.0369192295    0.0362093257   -1.2215240036   -1.5379198684    0.5038529533
H    0.4377420329    0.7116895119    0.3147022241    1.0109203000    1.5726842710    0.5081343546
H    0.1168542261   -0.1256124962   -0.8895098209    0.2106037036   -0.0347644026   -1.0119867937
3
energy=-2076.5448606503 Properties=species:S:1:pos:R:3:forces:R:3 pbc="T T T" Lattice="200.000 0.000 0.000 0.000 200.000 0.000 0.000 0.000 200.000"
O    0.0610842535   -0.0124419772    0.0120665161    1.7415538250   -0.2126585294    0.2486467772
H   -0.2878816338    0.6994986074   -0.4871762682   -0.4867252912    1.0808234580   -0.7553099465
H   -0.6818048286   -0.5019875283    0.2956254730   -1.2548285337   -0.8681649286    0.5066631693
3
energy=-2076.5499643362 Properties=species:S:1:pos:R:3:forces:R:3 pbc="T T T" Lattice="200.000 0.000 0.000 0.000 200.000 0.000 0.000 0.000 200.000"
O   -0.0401429438   -0.0360799623    0.0460552007    1.4292871522    0.3312388444   -0.7321931562
H   -0.2873907819    0.6778735498   -0.5615138678   -0.2755919403   -0.1670486986    0.2394216584
H    0.9246428874   -0.1051195425   -0.1695927929   -1.1536952118   -0.1641901459    0.4927714979
3
energy=-2076.5323624063 Properties=species:S:1:pos:R:3:forces:R:3 pbc="T T T" Lattice="200.000 0.000 0.000 0.000 200.000 0.000 0.000 0.000 200.000"
O    0.0466408602   -0.0234033352    0.0288232787    1.0262990976    0.8930475526    0.7010982323
H   -0.5984425087   -0.5595372790   -0.4106647771   -0.7337826123    0.1187489794   -0.4653131425
H   -0.1419612471    0.9310552404   -0.0468924751   -0.2925169995   -1.0117965320   -0.2357856040
3
energy=-2076.5485478475 Properties=species:S:1:pos:R:3:forces:R:3 pbc="T T T" Lattice="200.000 0.000 0.000 0.000 200.000 0.000 0.000 0.000 200.000"
O    0.0457622460   -0.0165651673   -0.0395830667    0.3926923283    0.0713938837   -1.9680042669
H   -0.7834470562    0.4054386540   -0.2513829165   -0.3194909590    0.1485120718    0.0258786695
H    0.0569909263   -0.1424736914    0.8797472125   -0.0732018835   -0.2199059555    1.9421255975
3
energy=-2076.5501396592 Properties=species:S:1:pos:R:3:forces:R:3 pbc="T T T" Lattice="200.000 0.000 0.000 0.000 200.000 0.000 0.000 0.000 200.000"
O   -0.0440812285    0.0403999714    0.0311060240    1.3318649608    0.0924918436    1.5196274964
H   -0.1420769205   -0.3573465363   -0.8129286041   -0.2981631425   -0.5446039130   -1.3214355372
H    0.8418476162   -0.2839857731    0.3191337451   -1.0337018184    0.4521115552   -0.1981919592
3
energy=-2076.5372314212 Properties=species:S:1:pos:R:3:forces:R:3 pbc="T T T" Lattice="200.000 0.000 0.000 0.000 200.000 0.000 0.000 0.000 200.000"
O    0.0213878396    0.0483388657    0.0288978721   -0.0923416911   -0.0475134757    1.4231139330
H   -0.3708438944   -0.7382605237    0.4583390400    0.3240073591    0.5902790498   -0.9260821169
H    0.0313210658   -0.0290983458   -0.9170804294   -0.2316656680   -0.5427655741   -0.4970323303
3
energy=-2076.5466042743 Properties=species:S:1:pos:R:3:forces:R:3 pbc="T T T" Lattice="200.000 0.000 0.000 0.000 200.000 0.000 0.000 0.000 200.000"
O   -0.0640007848    0.0066804291    0.0027392517    0.7926151135   -0.0340768896   -0.0009502798
H    0.5969116509    0.6026543086    0.4248669503   -0.5438197265   -0.9141809937   -0.6344104962
H    0.4190735016   -0.7087032704   -0.4683514025   -0.2487953870    0.9482578833    0.6353607760
3
energy=-2076.5307170698 Properties=species:S:1:pos:R:3:forces:R:3 pbc="T T T" Lattice="200.000 0.000 0.000 0.000 200.000 0.000 0.000 0.000 200.000"
O    0.0576752947   -0.0311939083    0.0084427273    1.0482923157    0.9264693251   -2.3106397841
H   -0.6629628257   -0.0602889360    0.5940303717   -1.5244298033   -0.0882731772    1.2828520176
H   -0.2526078695    0.5554789214   -0.7280550660    0.4761374876   -0.8381956337    1.0277882807
3
energy=-2076.5356483989 Properties=species:S:1:pos:R:3:forces:R:3 pbc="T T T" Lattice="200.000 0.000 0.000 0.000 200.000 0.000 0.000 0.000 200.000"
O   -0.0314313094    0.0479169726    0.0218429165   -0.1843146860   -0.0470964428    2.2858034399
H    0.1321738947   -0.0804329332   -0.8879980777    0.4697333834   -0.5488889138   -1.4261833162
H    0.3667847315   -0.6802285629    0.5412510974   -0.2854186974    0.5959853566   -0.8596201237
3
energy=-2076.5303155931 Properties=species:S:1:pos:R:3:forces:R:3 pbc="T T T" Lattice="200.000 0.000 0.000 0.000 200.000 0.000 0.000 0.000 200.000"
O    0.0499191858    0.0313876328   -0.0079796644    0.0597493566    1.3935544720   -1.0809715535
H   -0.8039144659    0.2155545743   -0.4411992991    0.5384620613   -0.6026434858    0.6576131613
H    0.0114686888   -0.7138198539    0.5678730675   -0.5982119321   -0.7909109862    0.4233583922
3
energy=-2076.5393217999 Properties=species:S:1:pos:R:3:forces:R:3 pbc="T T T" Lattice="200.000 0.000 0.000 0.000 200.000 0.000 0.000 0.000 200.000"
O    0.0286381142   -0.0603331586   -0.0114357761    0.6819676807   -0.7905284060    0.9935910634
H   -0.0313065354    0.4618194019    0.7879856137    0.1854675688   -0.0724881453    0.5493542835
H   -0.4233113088    0.4959437496   -0.6064475473   -0.8674352495    0.8630165512   -1.5429453470
3
energy=-2076.5338578352 Properties=species:S:1:pos:R:3:forces:R:3 pbc="T T T" Lattice="200.000 0.000 0.000 0.000 200.000 0.000 0.000 0.000 200.000"
O   -0.0491932097    0.0064573277    0.0500533047    0.4721111398   -1.5423714767    0.1713342136
H    0.5154017177   -0.7444097156   -0.2264814204   -0.6031489648    0.2031197359    0.5591435025
H    0.2655194986    0.6419023932   -0.5680934361    0.1310378250    1.3392517408   -0.7304777161
3
energy=-2076.5422205200 Properties=species:S:1:pos:R:3:forces:R:3 pbc="T T T" Lattice="200.000 0.000 0.000 0.000 200.000 0.000 0.000 0.000 200.000"
O   -0.0398482267   -0.0128579645   -0.0553307006    1.7091923755   -1.0386172538   -0.1582164443
H    0.8596681340   -0.3470975401    0.1994957049   -1.2104626027    0.2923699324   -0.5934883010
H   -0.2270945365    0.5512122410    0.6788555601   -0.4987297728    0.7462473214    0.7517052596
3
energy=-2076.5414821935 Properties=species:S:1:pos:R:3:forces:R:3 pbc="T T T" Lattice="200.000 0.000 0.000 0.000 200.000 0.000 0.000 0.000 200.000"
O    0.0440473532   -0.0041043141    0.0489377816   -0.7192404518    0.1557209314   -0.9561187747
H    0.1355120735    0.5181155132   -0.7886570621   -0.3543371227   -0.8284182419    1.1307738254
H   -0.8347450132   -0.4529612779    0.0117906591    1.0735775745    0.6726973104   -0.1746550507
3
energy=-2076.5223329425 Properties=species:S:1:pos:R:3:forces:R:3 pbc="T T T" Lattice="200.000 0.000 0.000 0.000 200.000 0.000 0.000 0.000 200.000"
O    0.0190734941   -0.0194777735    0.0523086362    1.1224028271    0.1478795804    2.0715775659
H   -0.4858664523   -0.5335596164   -0.5314396365   -1.0249086449   -0.6982551062   -1.4534915191
H    0.1830828707    0.8427609605   -0.2989376456   -0.0974941822    0.5503755258   -0.6180860468
3
energy=-2076.5173061287 Properties=species:S:1:pos:R:3:forces:R:3 pbc="T T T" Lattice="200.000 0.000 0.000 0.000 200.000 0.000 0.000 0.000 200.000"
O    0.0537411496   -0.0449102848   -0.0195412175   -0.0737402726    1.7267355279   -0.0994245666
H   -0.0522335951    0.9361984819   -0.0486752348    0.7148644339   -0.8815902018   -0.2383891033
H   -0.8008842260   -0.2232668717    0.3588837251   -0.6411241613   -0.8451453260    0.3378141841
3
energy=-2076.5172003036 Properties=species:S:1:pos:R:3:forces:R:3 pbc="T T T" Lattice="200.000 0.000 0.000 0.000 200.000 0.000 0.000 0.000 200.000"
O   -0.0222201305    0.0055490208    0.0561393114   -0.3469883951   -1.7996381350    2.1977914868
H    0.0207040014    0.6976539508   -0.5445467049    0.2384035015    1.7937719056   -1.9003261418
H    0.3320310893   -0.7857422883   -0.3466409115    0.1085854079    0.0058657152   -0.2974653450
3
energy=-2076.5484451518 Properties=species:S:1:pos:R:3:forces:R:3 pbc="T T T" Lattice="200.000 0.000 0.000 0.000 200.000 0.000 0.000 0.000 200.000"
O   -0.0070824474   -0.0470575506   -0.0435546113    0.7064846938    0.3419942840    0.5940662851
H    0.8101247464    0.1574663952    0.4789392921   -1.3644655229   -0.0639114587   -0.6331902506
H   -0.6976939159    0.5895521426    0.2124715801    0.6579808291   -0.2780828253    0.0391244797
3
energy=-2076.5402987159 Properties=species:S:1:pos:R:3:forces:R:3 pbc="T T T" Lattice="200.000 0.000 0.000 0.000 200.000 0.000 0.000 0.000 200.000"
O   -0.0360408631    0.0510158211   -0.0121637653   -0.8596730884    0.5743664912   -2.1249706408
H    0.3038491262   -0.1809228822    0.8141097804    0.8665075954   -0.6056712172    2.0654609111
H    0.2682841977   -0.6289315111   -0.6210151955   -0.0068350212    0.0313047260    0.0595097298
3
energy=-2076.5489633654 Properties=species:S:1:pos:R:3:forces:R:3 pbc="T T T" Lattice="200.000 0.000 0.000 0.000 200.000 0.000 0.000 0.000 200.000"
O   -0.0210403174   -0.0244842841    0.0519327880    0.4217000305    0.4992727898    0.9046200888
H    0.6113572764    0.7180260510   -0.0100056946   -0.6225304561   -0.7330051107   -0.4132956079
H   -0.2773512139   -0.3293484880   -0.8144051583    0.2008299113    0.2337323209   -0.4913249951
3
energy=-2076.5247507013 Properties=species:S:1:pos:R:3:forces:R:3 pbc="T T T" Lattice="200.000 0.000 0.000 0.000 200.000 0.000 0.000 0.000 200.000"
O    0.0402760195    0.0236534342   -0.0419988920   -1.5041869924   -0.2139219696   -2.1972973208
H    0.2391446679   -0.0577383573    0.8654416339    0.0617383621   -0.2692479999    1.6541568798
H   -0.8785092940   -0.3177498185   -0.1987271424    1.4424486302    0.4831699695    0.5431404410
3
energy=-2076.5294802851 Properties=species:S:1:pos:R:3:forces:R:3 pbc="T T T" Lattice="200.000 0.000 0.000 0.000 200.000 0.000 0.000 0.000 200.000"
O    0.0549343170    0.0033562715    0.0430426333   -0.3611027241    1.5958509406    0.4005465348
H   -0.6275436565    0.6545963713   -0.1989767460    0.5165536896    0.0807233893    0.4254852089
H   -0.2445151883   -0.7078757498   -0.4843066934   -0.1554509656   -1.6765743299   -0.8260317437
3
energy=-2076.5192686955 Properties=species:S:1:pos:R:3:forces:R:3 pbc="T T T" Lattice="200.000 0.000 0.000 0.000 200.000 0.000 0.000 0.000 200.000"
O    0.0154851699   -0.0294325232   -0.0602056447    2.2886486229    1.0332518753    0.9118212351
H    0.5830600344    0.4678295424    0.6051378140   -0.9440001362   -0.9778276288   -1.3813376173
H   -0.8288804995   -0.0006007933    0.3506011082   -1.3446484867   -0.0554247607    0.4695158680
3
energy=-2076.5409703473 Properties=species:S:1:pos:R:3:forces:R:3 pbc="T T T" Lattice="200.000 0.000 0.000 0.000 200.000 0.000 0.000 0.000 200.000"
O   -0.0216016937   -0.0638168147    0.0014527727    0.6801303702    1.2875993029   -0.4196549749
H   -0.2087304325    0.6390965919    0.6646416437    0.2738780429   -0.6746359224   -0.7871515188
H    0.5516481032    0.3739681133   -0.6877037911   -0.9540084131   -0.6129633805    1.2068059796
3
energy=-2076.5171877592 Properties=species:S:1:pos:R:3:forces:R:3 pbc="T T T" Lattice="200.000 0.000 0.000 0.000 200.000 0.000 0.000 0.000 200.000"
O    0.0255411153   -0.0325468305   -0.0587187766   -0.5833874644    1.5144292397    1.6709713815
H   -0.4943950843   -0.4093561456    0.6920690288    0.5721430010    0.1865021807   -0.9237485835
H    0.0889407759    0.9260231937    0.2400664973    0.0112439492   -1.7009314204   -0.7472222838
3
energy=-2076.5455475473 Properties=species:S:1:pos:R:3:forces:R:3 pbc="T T T" Lattice="200.000 0.000 0.000 0.000 200.000 0.000 0.000 0.000 200.000"
O   -0.0055973984    0.0672906339    0.0125779896   -0.0905228926   -1.6354577593    0.0412404978