3
energy=-2076.5795476027 Properties=species:S:1:pos:R:3:forces:R:3 pbc="T T T" Lattice="200.000 0.000 0.000 0.000 200.000 0.000 0.000 0.000 200.000"
O    0.0322493845    0.0015893537   -0.0577466171   -0.0569237140    0.0266304601    0.4934163306
H   -0.9120111125   -0.1614810791    0.0832723130    0.3256760052    0.0605947354    0.0092143202
H    0.4000658936    0.1362507678    0.8334305957   -0.2687522912   -0.0872251954   -0.5026306508
3
energy=-2076.5711086989 Properties=species:S:1:pos:R:3:forces:R:3 pbc="T T T" Lattice="200.000 0.000 0.000 0.000 200.000 0.000 0.000 0.000 200.000"
O   -0.0607174335    0.0126984213   -0.0060640757   -0.9484733418    0.0970570947    0.1502537372
H    0.3585670791   -0.3742717666    0.7594815920    0.3482646908   -0.1049256994    0.1123901266
H    0.6052962721    0.1726897460   -0.6632169780    0.6002086510    0.0078686047   -0.2626438639
3
energy=-2076.5715235092 Properties=species:S:1:pos:R:3:forces:R:3 pbc="T T T" Lattice="200.000 0.000 0.000 0.000 200.000 0.000 0.000 0.000 200.000"
O   -0.0204607884   -0.0185043034   -0.0627334030   -0.1020902866    0.3941542577    0.0859432433
H   -0.1187971397    0.8223458203    0.3982822752   -0.1554468518    0.1407550530   -0.2458704998
H    0.4436034250   -0.5285978984    0.5975837314    0.2575371384   -0.5349087965    0.1599272565
3
energy=-2076.5681780054 Properties=species:S:1:pos:R:3:forces:R:3 pbc="T T T" Lattice="200.000 0.000 0.000 0.000 200.000 0.000 0.000 0.000 200.000"
O    0.0585760806    0.0018526322   -0.0242895893   -0.1952742712   -0.3399008916   -0.9632011360
H   -0.7581341661   -0.2781732261   -0.4810266141    0.5569863467    0.2848232298    0.6051045460
H   -0.1717361213    0.2487634797    0.8666134809   -0.3617120756    0.0550776618    0.3580965900
3
energy=-2076.5726058965 Properties=species:S:1:pos:R:3:forces:R:3 pbc="T T T" Lattice="200.000 0.000 0.000 0.000 200.000 0.000 0.000 0.000 200.000"
O    0.0264385075    0.0003745801    0.0564713698    0.2732100702    0.0045811920    0.5557182786
H   -0.9133840569   -0.0606983031   -0.1182201195   -0.0560330838    0.0044408097   -0.3203368520
H    0.4936840299    0.0547520041   -0.7782387817   -0.2171769864   -0.0090220017   -0.2353819408
3
energy=-2076.5787235059 Properties=species:S:1:pos:R:3:forces:R:3 pbc="T T T" Lattice="200.000 0.000 0.000 0.000 200.000 0.000 0.000 0.000 200.000"
O   -0.0291531350   -0.0569450142   -0.0118828013    0.1864697848   -0.4919739416    0.6488266727
H    0.5126474869    0.1879564215    0.7531624879   -0.2040540749   -0.0465580537   -0.3186790045
H   -0.0498539071    0.7160213837   -0.5645280867    0.0175842900    0.5385319953   -0.3301476682
3
energy=-2076.5810572632 Properties=species:S:1:pos:R:3:forces:R:3 pbc="T T T" Lattice="200.000 0.000 0.000 0.000 200.000 0.000 0.000 0.000 200.000"
O    0.0124308004   -0.0199213709   -0.0628391810    0.0534249566    0.1100252258    0.0039399588
H   -0.4641677950   -0.4836741189    0.6275263768   -0.1496346156   -0.2410933898    0.0829648772
H    0.2668341425    0.7999173819    0.3700188117    0.0962096590    0.1310681640   -0.0869053502
3
energy=-2076.5781108960 Properties=species:S:1:pos:R:3:forces:R:3 pbc="T T T" Lattice="200.000 0.000 0.000 0.000 200.000 0.000 0.000 0.000 200.000"
O   -0.0012067802    0.0018777085   -0.0662779764    0.0659102344   -0.1591399847   -0.3892665902
H    0.3039819273   -0.7015811368    0.5045959618    0.1505530137   -0.3494875076    0.1078202475
H   -0.2848248072    0.6717733150    0.5475386358   -0.2164632481    0.5086269780    0.2814463427
3
energy=-2076.5746058518 Properties=species:S:1:pos:R:3:forces:R:3 pbc="T T T" Lattice="200.000 0.000 0.000 0.000 200.000 0.000 0.000 0.000 200.000"
O    0.0184792971   -0.0385169286    0.0524305809   -0.6705663800   -0.4329516930   -0.3036215949
H   -0.7086538492   -0.1599809886   -0.5807842354    0.2669643459   -0.1091279107    0.3667421822
H    0.4153028920    0.7714207959   -0.2515288665    0.4036020341    0.5420801179   -0.0631211015
3
energy=-2076.5681738420 Properties=species:S:1:pos:R:3:forces:R:3 pbc="T T T" Lattice="200.000 0.000 0.000 0.000 200.000 0.000 0.000 0.000 200.000"
O    0.0096374016   -0.0545452795    0.0354480244   -0.4064009372    0.4660747033   -0.4839186748
H   -0.7701016888    0.1639098020   -0.5206194008    0.8769946117   -0.0855498645    0.5371317724
H    0.6171120510    0.7019732384   -0.0421028632   -0.4705936746   -0.3805253530   -0.0532130976
3
energy=-2076.5784375142 Properties=species:S:1:pos:R:3:forces:R:3 pbc="T T T" Lattice="200.000 0.000 0.000 0.000 200.000 0.000 0.000 0.000 200.000"
O   -0.0344465678    0.0504953830    0.0175577420   -0.1297872403    0.3057535538    0.4559522694
H    0.5123188209   -0.4992949397    0.5882176413   -0.0130010412   -0.0463317966   -0.2140530958
H    0.0345057458   -0.3022977220   -0.8669393047    0.1427882816   -0.2594222714   -0.2418991736
3
energy=-2076.5702516490 Properties=species:S:1:pos:R:3:forces:R:3 pbc="T T T" Lattice="200.000 0.000 0.000 0.000 200.000 0.000 0.000 0.000 200.000"
O    0.0323878648   -0.0476861061    0.0288902140    0.3185062264   -1.0352290538    0.0997639523
H    0.0053587994    0.8578075353    0.2865726229   -0.0211889769    1.0820791848    0.3231789496
H   -0.5195023349   -0.1008109463   -0.7451924444   -0.2973172495   -0.0468496168   -0.4229429019
3
energy=-2076.5686065575 Properties=species:S:1:pos:R:3:forces:R:3 pbc="T T T" Lattice="200.000 0.000 0.000 0.000 200.000 0.000 0.000 0.000 200.000"
O   -0.0422718880    0.0367004101   -0.0414385197    0.6445313874   -0.5587835480    0.6298447309
H   -0.1752935997   -0.2602445990    0.8774560229   -0.1696377996    0.2698347257   -0.4781018106
H    0.8463417857   -0.3223587533   -0.2196372019   -0.4748935878    0.2889483080   -0.1517429203
3
energy=-2076.5759223930 Properties=species:S:1:pos:R:3:forces:R:3 pbc="T T T" Lattice="200.000 0.000 0.000 0.000 200.000 0.000 0.000 0.000 200.000"
O   -0.0130633545    0.0326238609   -0.0585284192    0.2450570027   -0.2383927028    0.7558236529
H    0.4756228243    0.3482045155    0.7244422338   -0.2750448096   -0.0711321453   -0.5381704982
H   -0.2682476450   -0.8660943877    0.2046714488    0.0299878068    0.3095248482   -0.2176531547
3
energy=-2076.5793760077 Properties=species:S:1:pos:R:3:forces:R:3 pbc="T T T" Lattice="200.000 0.000 0.000 0.000 200.000 0.000 0.000 0.000 200.000"
O    0.0423715279    0.0023853263   -0.0489809199    0.3407174740    0.2949281802    0.3208418167
H    0.1400479714    0.3926598947    0.8354276979   -0.1719800748   -0.2584719916   -0.4460206114
H   -0.8126778994   -0.4305259323   -0.0578764922   -0.1687373992   -0.0364561887    0.1251787947
3
energy=-2076.5713071515 Properties=species:S:1:pos:R:3:forces:R:3 pbc="T T T" Lattice="200.000 0.000 0.000 0.000 200.000 0.000 0.000 0.000 200.000"
O    0.0579677177   -0.0237517760   -0.0042966891    0.9302601599    0.0300371720    0.5408655287
H   -0.6462002235   -0.1824673021   -0.6153270505   -0.7493403587   -0.0092035216   -0.4134390755
H   -0.2740125622    0.5595166124    0.6835351570   -0.1809198011   -0.0208341647   -0.1274269675
3
energy=-2076.5752898372 Properties=species:S:1:pos:R:3:forces:R:3 pbc="T T T" Lattice="200.000 0.000 0.000 0.000 200.000 0.000 0.000 0.000 200.000"
O   -0.0364874142   -0.0292846020   -0.0476514943   -0.3616909925   -0.3538887223    0.0069826025
H   -0.0540760412   -0.1721020066    0.8992668363   -0.1448353940   -0.1762295944    0.2628562370
H    0.6332981748    0.6369825693   -0.1428196945    0.5065263866    0.5301178025   -0.2698388395
3
energy=-2076.5725441267 Properties=species:S:1:pos:R:3:forces:R:3 pbc="T T T" Lattice="200.000 0.000 0.000 0.000 200.000 0.000 0.000 0.000 200.000"
O    0.0288076313    0.0132007201   -0.0569592572   -0.8491680744    0.4758639222   -0.0407231918
H    0.3887462135   -0.5319969716    0.6432539662   -0.0319978954   -0.1023391694    0.2375689213
H   -0.8460550693    0.3224411725    0.2609499397    0.8811659698   -0.3735247528   -0.1968457295
3
energy=-2076.5758682424 Properties=species:S:1:pos:R:3:forces:R:3 pbc="T T T" Lattice="200.000 0.000 0.000 0.000 200.000 0.000 0.000 0.000 200.000"
O   -0.0593912975   -0.0141677695   -0.0177613271   -0.7654411221   -0.1363358406   -0.3512631115
H    0.6057265128    0.4187281313   -0.5442396529    0.4034025164    0.2067233944   -0.1716350327
H    0.3370849955   -0.1938208352    0.8261931427    0.3620386057   -0.0703875538    0.5228981443
3
energy=-2076.5776774730 Properties=species:S:1:pos:R:3:forces:R:3 pbc="T T T" Lattice="200.000 0.000 0.000 0.000 200.000 0.000 0.000 0.000 200.000"
O    0.0342095261    0.0002416898    0.0535375903    0.1638373905   -0.0247453271    0.1850376803
H    0.2736674902   -0.4339437107   -0.7724425007   -0.2367327985    0.1423105705    0.0261666330
H   -0.8167291221    0.4301069880   -0.0774439029    0.0728954080   -0.1175652434   -0.2112043133
3
energy=-2076.5715792654 Properties=species:S:1:pos:R:3:forces:R:3 pbc="T T T" Lattice="200.000 0.000 0.000 0.000 200.000 0.000 0.000 0.000 200.000"
O   -0.0470936160   -0.0166772831   -0.0372375497   -0.7157782040   -0.4171723175   -0.1945065397
H    0.0924068702   -0.3155096362    0.8633929445    0.2401533944    0.1436012644    0.0570229586
H    0.6551841916    0.5802543903   -0.2722627304    0.4756242954    0.2735705389    0.1374840953
3
energy=-2076.5788636990 Properties=species:S:1:pos:R:3:forces:R:3 pbc="T T T" Lattice="200.000 0.000 0.000 0.000 200.000 0.000 0.000 0.000 200.000"
O    0.0276694677   -0.0427490710   -0.0417909182    0.3297594316   -0.3802636147   -0.0898986287
H   -0.6388130886    0.6090586853   -0.2290736218   -0.4513201696    0.4125618150   -0.2178598715
H    0.1995720939    0.0695645771    0.8924866173    0.1215607381   -0.0322982003    0.3077590144
3
energy=-2076.5704977760 Properties=species:S:1:pos:R:3:forces:R:3 pbc="T T T" Lattice="200.000 0.000 0.000 0.000 200.000 0.000 0.000 0.000 200.000"
O   -0.0503570155   -0.0321665498   -0.0301497736    0.8339707967    0.5602794159   -0.2934503100
H    0.1091441674    0.0399817820    0.9203811216   -0.0075898971    0.0019165004   -0.1989473494
H    0.6902519694    0.4706484714   -0.4417663289   -0.8263808996   -0.5621959164    0.4923981736
3
energy=-2076.5835790512 Properties=species:S:1:pos:R:3:forces:R:3 pbc="T T T" Lattice="200.000 0.000 0.000 0.000 200.000 0.000 0.000 0.000 200.000"
O    0.0272644322    0.0486831980   -0.0346695510   -0.0396412715    0.1718103820   -0.0687183935
H    0.4269846139   -0.7851188423    0.2170113108    0.0969563074   -0.1796419628    0.0499447111
H   -0.8597958420    0.0122938456    0.3333530188   -0.0573145217    0.0078320950    0.0187736825
3
energy=-2076.5737741357 Properties=species:S:1:pos:R:3:forces:R:3 pbc="T T T" Lattice="200.000 0.000 0.000 0.000 200.000 0.000 0.000 0.000 200.000"
O   -0.0362873539    0.0521661716    0.0246287740    0.8647078230    0.0145195349   -0.4540409112
H    0.8299903503    0.0543246892   -0.4315578412   -0.6733642547    0.1607402394    0.3717388644
H   -0.2539440895   -0.8824404061    0.0405865617   -0.1913435684   -0.1752597742    0.0823020467
3
energy=-2076.5737343799 Properties=species:S:1:pos:R:3:forces:R:3 pbc="T T T" Lattice="200.000 0.000 0.000 0.000 200.000 0.000 0.000 0.000 200.000"
O   -0.0051841403    0.0279592594   -0.0559463170    0.3844735393    0.3715902547   -0.6479658673
H    0.8089239388   -0.1310436597    0.4276560426   -0.1235898528   -0.1038900589    0.1777753417
H   -0.7266279226   -0.3127976536    0.4604678696   -0.2608836865   -0.2677001957    0.4701905256
3
energy=-2076.5736174526 Properties=species:S:1:pos:R:3:forces:R:3 pbc="T T T" Lattice="200.000 0.000 0.000 0.000 200.000 0.000 0.000 0.000 200.000"
O   -0.0310376284   -0.0529720075   -0.0177474236   -0.1942221757    0.1275159276   -0.9346392631
H    0.1938525459    0.7126486993   -0.5742025003   -0.0598995090   -0.4024995449    0.5045373810
H    0.2988565621    0.1282593195    0.8559352781    0.2541216847    0.2749836173    0.4301018821
3
energy=-2076.5760866410 Properties=species:S:1:pos:R:3:forces:R:3 pbc="T T T" Lattice="200.000 0.000 0.000 0.000 200.000 0.000 0.000 0.000 200.000"
O    0.0603917652   -0.0205645142   -0.0097902042    0.8182109616   -0.0693282592    0.2080757948
H   -0.6921106361   -0.1783957205   -0.5618806679   -0.6790335375   -0.1332767418   -0.4833041811
H   -0.2665828694    0.5048486095    0.7172959827   -0.1391774240    0.2026050010    0.2752283863
3
energy=-2076.5811223256 Properties=species:S:1:pos:R:3:forces:R:3 pbc="T T T" Lattice="200.000 0.000 0.000 0.000 200.000 0.000 0.000 0.000 200.000"
O    0.0024583405   -0.0543317869    0.0339257930    0.0036175424   -0.2619774339    0.1632007853
H    0.7498345981    0.4722837480   -0.2590093098   -0.0549244240    0.1307555179   -0.0839259556
H   -0.7888597053    0.3902101885   -0.2795481788    0.0513068816    0.1312219160   -0.0792748297
3
energy=-2076.5804941508 Properties=species:S:1:pos:R:3:forces:R:3 pbc="T T T" Lattice="200.000 0.000 0.000 0.000 200.000 0.000 0.000 0.000 200.000"
O   -0.0272850611    0.0229556984   -0.0536475248   -0.3527111570    0.2260863737   -0.3807598376
H    0.8482087273   -0.3440644728    0.0320960171    0.4036164322   -0.1849209522    0.1090847161
H   -0.4150700235   -0.0203474450    0.8195355494   -0.0509052753   -0.0411654216    0.2716756357
3
energy=-2076.5718522228 Properties=species:S:1:pos:R:3:forces:R:3 pbc="T T T" Lattice="200.000 0.000 0.000 0.000 200.000 0.000 0.000 0.000 200.000"
O    0.0131911648    0.0478168482    0.0425075655    0.3498176372    0.2920259188   -0.8946071839
H   -0.4318739087   -0.7770461313    0.2416196209   -0.0787174145   -0.2049971556   -0.0872046266
H    0.2224697953    0.0179740681   -0.9164090875   -0.2710997086   -0.0870287632    0.9818118105
3
energy=-2076.5801725122 Properties=species:S:1:pos:R:3:forces:R:3 pbc="T T T" Lattice="200.000 0.000 0.000 0.000 200.000 0.000 0.000 0.000 200.000"
O   -0.0367451913   -0.0431921745   -0.0298613662    0.0696583889   -0.2375822910   -0.2000446963
H   -0.3394027951    0.6466508617    0.5642238309    0.1379931738    0.1187109271    0.0771912075
H    0.9227170302    0.0390064798   -0.0901873831   -0.2076510485    0.1188713639    0.1228529746
3
energy=-2076.5754640989 Properties=species:S:1:pos:R:3:forces:R:3 pbc="T T T" Lattice="200.000 0.000 0.000 0.000 200.000 0.000 0.000 0.000 200.000"
O    0.0273946235    0.0513224126    0.0287101995   -0.0056163182    0.2527805972    0.9388327327
H   -0.4881317830   -0.6507347399    0.4347582765   -0.0203703376   -0.0281602666    0.0145606725
H    0.0532538230   -0.1639866639   -0.8905204444    0.0259866558   -0.2246203306   -0.9533939194
3
energy=-2076.5701880832 Properties=species:S:1:pos:R:3:forces:R:3 pbc="T T T" Lattice="200.000 0.000 0.000 0.000 200.000 0.000 0.000 0.000 200.000"
O   -0.0358184833    0.0455703707    0.0246206927   -0.2554365469   -0.1513870796    0.2887714161
H    0.6270792438    0.1701021545   -0.6610166729    0.0122487364   -0.3258888926    0.0653085963
H   -0.0584761042   -0.8935123462    0.2701736805    0.2431878106    0.4772759722   -0.3540794982
3
energy=-2076.5713447576 Properties=species:S:1:pos:R:3:forces:R:3 pbc="T T T" Lattice="200.000 0.000 0.000 0.000 200.000 0.000 0.000 0.000 200.000"
O   -0.0532925850   -0.0109874516    0.0427997754    0.2774601040   -0.0719924365   -0.6388667325
H    0.0587065023   -0.2501485554   -0.8915521098   -0.3253227356   -0.0523368656    0.3087427185
H    0.7872905477    0.4245696612    0.2121239365    0.0478626316    0.1243293021    0.3301234998
3
energy=-2076.5742203753 Properties=species:S:1:pos:R:3:forces:R:3 pbc="T T T" Lattice="200.000 0.000 0.000 0.000 200.000 0.000 0.000 0.000 200.000"
O   -0.0648064749    0.0035170605    0.0158787647    0.6920356072   -0.2821513392    0.6779783567
H    0.6940432431   -0.2549562423    0.5828536682   -0.7448650962    0.2508373573   -0.5465888048
H    0.3347318963    0.1991244071   -0.8349222834    0.0528289748    0.0313139819   -0.1313895520
3
energy=-2076.5811868438 Properties=species:S:1:pos:R:3:forces:R:3 pbc="T T T" Lattice="200.000 0.000 0.000 0.000 200.000 0.000 0.000 0.000 200.000"
O   -0.0354588063   -0.0544347107   -0.0158992959   -0.1475278535    0.1240346537   -0.1560207221
H    0.7032855181    0.0167101016    0.5878501117    0.2562983808   -0.1100967024    0.2440434738
H   -0.1403920972    0.8474177066   -0.3354555734   -0.1087705273   -0.0139379513   -0.0880227517
3
energy=-2076.5725046157 Properties=species:S:1:pos:R:3:forces:R:3 pbc="T T T" Lattice="200.000 0.000 0.000 0.000 200.000 0.000 0.000 0.000 200.000"
O    0.0061361782   -0.0581684680   -0.0223083232    0.1228221214   -0.8819362724   -0.2999767988
H    0.4528248340    0.3005132336    0.7377034266    0.1190523696    0.3675345962    0.3437071530
H   -0.5502340451    0.6228863778   -0.3835683139   -0.2418744910    0.5144016761   -0.0437303543
3
energy=-2076.5723341092 Properties=species:S:1:pos:R:3:forces:R:3 pbc="T T T" Lattice="200.000 0.000 0.000 0.000 200.000 0.000 0.000 0.000 200.000"
O    0.0165357672    0.0525510785   -0.0327433235   -0.6159844269   -0.0937264874   -0.8846801539
H   -0.6264711090   -0.6316908013   -0.2941381076    0.4967006580    0.4067269531    0.3394447779
H    0.3639728600   -0.2025351482    0.8139243975    0.1192837689   -0.3130004657    0.5452353760
3
energy=-2076.5801022796 Properties=species:S:1:pos:R:3:forces:R:3 pbc="T T T" Lattice="200.000 0.000 0.000 0.000 200.000 0.000 0.000 0.000 200.000"
O   -0.0094569935    0.0201712234   -0.0624542209   -0.2143451732    0.4607684602   -0.0338182366
H   -0.2220649995    0.4794476206    0.7564677613   -0.0362021636    0.0777105704   -0.0537787404
H    0.3721907369   -0.7996571860    0.2349663493    0.2505473368   -0.5384790306    0.0875969770
3
energy=-2076.5702517851 Properties=species:S:1:pos:R:3:forces:R:3 pbc="T T T" Lattice="200.000 0.000 0.000 0.000 200.000 0.000 0.000 0.000 200.000"
O   -0.0258675760   -0.0133658680    0.0548286601   -0.1411108937   -0.3893663490    0.5985045237
H    0.5918277987   -0.5719091143   -0.4241808610   -0.0165445359    0.2528150500   -0.2122116716
H   -0.1811910655    0.7840865656   -0.4462007246    0.1576559438    0.1365512990   -0.3862928521
3
energy=-2076.5726457884 Properties=species:S:1:pos:R:3:forces:R:3 pbc="T T T" Lattice="200.000 0.000 0.000 0.000 200.000 0.000 0.000 0.000 200.000"
O    0.0271616727   -0.0571773800   -0.0169817855   -0.2467739855    0.2638183439   -1.1516624975
H   -0.3730142272    0.6230228771   -0.5954170208    0.3318497386   -0.5530376462    0.5358853015
H   -0.0581657382    0.2846436361    0.8649956209   -0.0850757530    0.2892193023    0.6157771960
3
energy=-2076.5776709151 Properties=species:S:1:pos:R:3:forces:R:3 pbc="T T T" Lattice="200.000 0.000 0.000 0.000 200.000 0.000 0.000 0.000 200.000"
O    0.0557623530   -0.0234275249   -0.0239926985   -0.3920665217   -0.3278892110   -0.6687568374
H   -0.0479194626    0.4700916495    0.7855580925   -0.1416641952    0.2318363893    0.3538948929
H   -0.8372840993   -0.0981896874   -0.4046842404    0.5337307169    0.0960528217    0.3148624587
3
energy=-2076.5760862600 Properties=species:S:1:pos:R:3:forces:R:3 pbc="T T T" Lattice="200.000 0.000 0.000 0.000 200.000 0.000 0.000 0.000 200.000"
O   -0.0020063507   -0.0497665970   -0.0396609576    0.4327927989   -0.0988666372   -0.1642348831
H   -0.7534319261    0.3339879823    0.4161694792    0.0688042684    0.1983117727    0.1461517990
H    0.7852818872    0.4560355116    0.2134313011   -0.5015970672   -0.0994451355    0.0180830841
3
energy=-2076.5705695052 Properties=species:S:1:pos:R:3:forces:R:3 pbc="T T T" Lattice="200.000 0.000 0.000 0.000 200.000 0.000 0.000 0.000 200.000"
O   -0.0279470355    0.0546755931   -0.0207976807   -0.1840987133    0.1425964772   -1.2835626706
H    0.2829471962   -0.6963900738   -0.5421271010   -0.0656212424    0.1610914521    0.1234952362
H    0.1607000683   -0.1715616398    0.8722814094    0.2497199558   -0.3036879293    1.1600679486
3
energy=-2076.5791867798 Properties=species:S:1:pos:R:3:forces:R:3 pbc="T T T" Lattice="200.000 0.000 0.000 0.000 200.000 0.000 0.000 0.000 200.000"
O   -0.0452115829   -0.0441988301    0.0154541752   -0.1188291979   -0.6140453008   -0.4415191236
H    0.1706950421    0.7429576192    0.4995056519    0.1754994011    0.5996712904    0.3545757211
H    0.5470195469   -0.0413200485   -0.7448340894   -0.0566707174    0.0143740104    0.0869428883
3
energy=-2076.5839424593 Properties=species:S:1:pos:R:3:forces:R:3 pbc="T T T" Lattice="200.000 0.000 0.000 0.000 200.000 0.000 0.000 0.000 200.000"
O    0.0093061956   -0.0101658412   -0.0641664206    0.0161598988   -0.0435462633   -0.0756408322
H   -0.1799710144    0.8226730351    0.3757494059   -0.0150337555    0.0602610062    0.0430901495
H    0.0322391290   -0.6612946438    0.6428651447   -0.0011256290   -0.0167147429    0.0325506827
3
energy=-2076.5758811406 Properties=species:S:1:pos:R:3:forces:R:3 pbc="T T T" Lattice="200.000 0.000 0.000 0.000 200.000 0.000 0.000 0.000 200.000"
O   -0.0128027514    0.0645514002   -0.0163464892    0.0206130498   -0.8365444711   -0.2122636079
H   -0.1110153923   -0.7398367569   -0.5649021689    0.0476754552    0.6774260837    0.3597312975
H    0.3142536089   -0.2848891799    0.8243957102   -0.0682885050    0.1591183874   -0.1474676897
3
energy=-2076.5682534081 Properties=species:S:1:pos:R:3:forces:R:3 pbc="T T T" Lattice="200.000 0.000 0.000 0.000 200.000 0.000 0.000 0.000 200.000"
O   -0.0435302493   -0.0510579360   -0.0069774338    0.6564921602    0.7894588270   -0.3043517882
H    0.3060653156    0.3222904050    0.8217542997   -0.1919045831   -0.2038915812   -0.4769535558
H    0.3849588202    0.4882325442   -0.7109905147   -0.4645875771   -0.5855672458    0.7813058583
3
energy=-2076.5760334699 Properties=species:S:1:pos:R:3:forces:R:3 pbc="T T T" Lattice="200.000 0.000 0.000 0.000 200.000 0.000 0.000 0.000 200.000"
O    0.0031368220   -0.0641374196   -0.0235172825    0.2689158134    0.6383535403    0.4017158726
H   -0.6931188451    0.5936138393   -0.1533004041    0.0102412189   -0.2087525092   -0.0765232349
H    0.6433231343    0.4245403325    0.5266272295   -0.2791575465   -0.4296005169   -0.3251931520
3
energy=-2076.5793039248 Properties=species:S:1:pos:R:3:forces:R:3 pbc="T T T" Lattice="200.000 0.000 0.000 0.000 200.000 0.000 0.000 0.000 200.000"
O   -0.0647575084    0.0157675417   -0.0001632766   -0.2472763791   -0.1358704709   -0.2396941953
H    0.6174358578    0.3294963395    0.5866177638    0.2931767446    0.2645948171    0.4103954033
H    0.4105619582   -0.5797993366   -0.5840258170   -0.0459003655   -0.1287243462   -0.1707012080
3
energy=-2076.5725275549 Properties=species:S:1:pos:R:3:forces:R:3 pbc="T T T" Lattice="200.000 0.000 0.000 0.000 200.000 0.000 0.000 0.000 200.000"
O   -0.0539675146   -0.0320359780   -0.0052497694   -0.4405318199   -0.9016658910   -0.2567724922
H    0.8262893320   -0.3554200994   -0.2022872221    0.1783137308    0.1271590585    0.0244686764
H    0.0304219367    0.8639775817    0.2856250712    0.2622180891    0.7745068325    0.2323038159
3
energy=-2076.5778546736 Properties=species:S:1:pos:R:3:forces:R:3 pbc="T T T" Lattice="200.000 0.000 0.000 0.000 200.000 0.000 0.000 0.000 200.000"
O    0.0231413244    0.0574018424   -0.0176740080    0.0143390434   -0.1117710049   -0.0315659501
H    0.2582516178   -0.8015651191   -0.3987702553   -0.2223181647    0.2587913226    0.2830337419
H   -0.6256102689   -0.1096646385    0.6793375920    0.2079791213   -0.1470203177   -0.2514677918
3
energy=-2076.5720594919 Properties=species:S:1:pos:R:3:forces:R:3 pbc="T T T" Lattice="200.000 0.000 0.000 0.000 200.000 0.000 0.000 0.000 200.000"
O    0.0499316728   -0.0394277089    0.0141650659    0.1928687469   -0.0385238700    1.2388074745
H   -0.2866977988    0.1530301157   -0.8447589887   -0.3979610333    0.2275472747   -1.0151523361
H   -0.5059462031    0.4728679412    0.6198946111    0.2050922864   -0.1890234047   -0.2236551384
3
energy=-2076.5731307769 Properties=species:S:1:pos:R:3:forces:R:3 pbc="T T T" Lattice="200.000 0.000 0.000 0.000 200.000 0.000 0.000 0.000 200.000"
O   -0.0015164580   -0.0565823091    0.0363369763    0.7325058024    0.7753342136    0.2174268976
H   -0.5727224538    0.1801237052   -0.6961460540   -0.1749867231    0.0080624659   -0.1812730708
H    0.5967955781    0.7180963111    0.1193120590   -0.5575190794   -0.7833971937   -0.0361533127
3
energy=-2076.5726126449 Properties=species:S:1:pos:R:3:forces:R:3 pbc="T T T" Lattice="200.000 0.000 0.000 0.000 200.000 0.000 0.000 0.000 200.000"
O    0.0529175129    0.0273818305   -0.0245177394    0.0113570777    1.1443744480   -0.3573175457
H   -0.0265260463   -0.8625451181    0.2747539093   -0.1463482313   -1.0257247131    0.3615614089
H   -0.8135168940    0.4278702418    0.1144547424    0.1349911535   -0.1186497348   -0.0042438632
3
energy=-2076.5796805031 Properties=species:S:1:pos:R:3:forces:R:3 pbc="T T T" Lattice="200.000 0.000 0.000 0.000 200.000 0.000 0.000 0.000 200.000"
O    0.0304090909   -0.0024851056    0.0579689605   -0.5644420322   -0.2573653887    0.1092472099
H   -0.8669781719   -0.3113755485   -0.1599118783    0.5710806211    0.2156461515    0.0642045645
H    0.3842468281    0.3508255402   -0.7603206367   -0.0066385889    0.0417192372   -0.1734517744
3
energy=-2076.5748297470 Properties=species:S:1:pos:R:3:forces:R:3 pbc="T T T" Lattice="200.000 0.000 0.000 0.000 200.000 0.000 0.000 0.000 200.000"
O   -0.0005315122   -0.0598785364   -0.0263120608   -0.2626037547    0.0053797767   -1.0318768492
H   -0.1951841260    0.7864500626   -0.4505199175    0.0431734533   -0.2175688226    0.0819703744
H    0.2036216553    0.1640961560    0.8682126560    0.2194303014    0.2121890459    0.9499064748
3
energy=-2076.5693154413 Properties=species:S:1:pos:R:3:forces:R:3 pbc="T T T" Lattice="200.000 0.000 0.000 0.000 200.000 0.000 0.000 0.000 200.000"
O    0.0134550622    0.0478904864   -0.0403860625   -0.1055113967   -0.1629251630    0.2266967537
H   -0.5388679333    0.1091416598    0.7595622363    0.4261418687   -0.3117653076   -0.5052459771
H    0.3252745615   -0.8693826986   -0.1184507243   -0.3206309862    0.4746904706    0.2785492234
3
energy=-2076.5817129760 Properties=species:S:1:pos:R:3:forces:R:3 pbc="T T T" Lattice="200.000 0.000 0.000 0.000 200.000 0.000 0.000 0.000 200.000"
O    0.0155286910   -0.0358104587   -0.0548332075   -0.0805696373    0.3266725649    0.2185386427
H   -0.0999683250    0.9217386223    0.0292285350    0.0527307587   -0.2423408891   -0.1296581710
H   -0.1465430194   -0.3532628689    0.8412252393    0.0278388787   -0.0843321900   -0.0888804718
3
energy=-2076.5684407857 Properties=species:S:1:pos:R:3:forces:R:3 pbc="T T T" Lattice="200.000 0.000 0.000 0.000 200.000 0.000 0.000 0.000 200.000"
O   -0.0122005332   -0.0642598420   -0.0185491789    1.0704310582    0.5385433082    0.3558113934
H   -0.6402354977    0.6617811395    0.0325335269   -0.1492422652    0.0284631426   -0.0237914478
H    0.8339137565    0.3583164352    0.2619267746   -0.9211887930   -0.5670059365   -0.3320199456
3
energy=-2076.5725843995 Properties=species:S:1:pos:R:3:forces:R:3 pbc="T T T" Lattice="200.000 0.000 0.000 0.000 200.000 0.000 0.000 0.000 200.000"
O   -0.0248311098    0.0229579300    0.0540794258   -1.0337136455    0.2096199994    0.4047384617
H    0.8922053281   -0.0929579834   -0.1316005952    0.9892386997   -0.1632460367   -0.2948639026
H   -0.4980220550   -0.2714893605   -0.7268872167    0.0444749458   -0.0463739627   -0.1098745591
3
energy=-2076.5782689125 Properties=species:S:1:pos:R:3:forces:R:3 pbc="T T T" Lattice="200.000 0.000 0.000 0.000 200.000 0.000 0.000 0.000 200.000"
O   -0.0623338199    0.0006053063   -0.0238354246    0.5554678531    0.1362180840    0.2668111082
H    0.4112093756    0.7185916556    0.4348841236   -0.2862933867   -0.4660947579   -0.2896301646
H    0.5783134209   -0.7282006356   -0.0565069284   -0.2691739522    0.3298766739    0.0228190565
3
energy=-2076.5736778891 Properties=species:S:1:pos:R:3:forces:R:3 pbc="T T T" Lattice="200.000 0.000 0.000 0.000 200.000 0.000 0.000 0.000 200.000"
O   -0.0281049591    0.0576607565   -0.0178281161    0.1952598730   -0.7381051513   -0.6112314853
H    0.2546006269   -0.1992455361    0.8651548914    0.0172808999   -0.0336680842    0.0148717760
H    0.1915536081   -0.7160943726   -0.5821411547   -0.2125407728    0.7717732355    0.5963597093
3
energy=-2076.5760834028 Properties=species:S:1:pos:R:3:forces:R:3 pbc="T T T" Lattice="200.000 0.000 0.000 0.000 200.000 0.000 0.000 0.000 200.000"
O    0.0493733918    0.0363612357    0.0185601484    0.9361963233   -0.0865675072   -0.0243005262
H   -0.8681399768    0.2505312284    0.1050815557   -0.8453566707    0.1108592917    0.0378034468
H    0.0843584476   -0.8277503317   -0.3997159921   -0.0908396525   -0.0242922987   -0.0135024064
3
energy=-2076.5715691971 Properties=species:S:1:pos:R:3:forces:R:3 pbc="T T T" Lattice="200.000 0.000 0.000 0.000 200.000 0.000 0.000 0.000 200.000"
O    0.0018469927   -0.0294526723    0.0602733230   -0.4372932582   -0.0209493501   -0.8921723490
H    0.5332121830    0.7213408104   -0.2430053462   -0.1678724801   -0.2281442849    0.0784747023
H   -0.5625324035   -0.2537922044   -0.7138079406    0.6051657382    0.2490936350    0.8136976467
3
energy=-2076.5720374507 Properties=species:S:1:pos:R:3:forces:R:3 pbc="T T T" Lattice="200.000 0.000 0.000 0.000 200.000 0.000 0.000 0.000 200.000"
O   -0.0218448166    0.0429525489   -0.0427116226   -0.3298951858    0.7047605119   -0.5828326203
H    0.1846249386   -0.8673089434   -0.1982652046    0.1854536848   -0.8257468655   -0.1487337009
H    0.1621522050    0.1854555561    0.8762939899    0.1444409868    0.1209863536    0.7315663212
3
energy=-2076.5730377140 Properties=species:S:1:pos:R:3:forces:R:3 pbc="T T T" Lattice="200.000 0.000 0.000 0.000 200.000 0.000 0.000 0.000 200.000"
O    0.0176384190    0.0561030820    0.0287158311   -0.1894039280   -0.4375827644   -0.2645454519