12
energy=-0.3200241040 Properties=species:S:1:pos:R:3:forces:R:3 pbc="T T T" Lattice="200.000 0.000 0.000 0.000 200.000 0.000 0.000 0.000 200.000"
O    0.8109796401   -0.5328529950   -1.1678517400    0.1023134584   -0.3232046607   -0.4823281903
H    0.2784344739   -0.1173148877   -0.3966739390   -0.3399800816    0.1456175237    0.4162770594
C    0.1188715005   -1.4967420849   -1.7576824560    0.3017873697    0.3265193271    0.1654155337
H   -0.7355870719   -1.8573692380   -1.1450016429   -0.0669942116   -0.0029140885    0.0687435903
H    0.6714475708   -2.4130776433   -1.6499580785   -0.0227774046   -0.0693092331   -0.0223619143
H   -0.2512449794   -1.2533641323   -2.7995034438   -0.0328833834   -0.0322879159   -0.0590968106
O   -0.7012387043    0.5077109394    1.0655347171   -0.0845435347   -0.1404316082   -0.0878108928
H   -1.6903247771    0.4562758659    1.0486378483   -0.0482837783   -0.0593446649   -0.0712828120
C   -0.1457046170    1.5250954026    1.8203582408    0.2259074249    0.2850829113    0.1454545157
H   -0.2418599712    1.3326051447    2.8802328642   -0.0213992932   -0.0634250059   -0.0657868215
H   -0.3643818063    2.5365629618    1.2979868763   -0.0099337149   -0.0647162140   -0.0141780923
H    0.9111741973    1.3769381793    1.6416628441   -0.0032133650   -0.0015863708    0.0069543203
12
energy=-0.3074880362 Properties=species:S:1:pos:R:3:forces:R:3 pbc="T T T" Lattice="200.000 0.000 0.000 0.000 200.000 0.000 0.000 0.000 200.000"
O    1.5148339729   -0.5225894051   -0.5941098523    0.1799227273   -0.3123144953   -0.5596757208
H    1.0140860626   -0.0726167318    0.1727605509   -0.4954793839    0.1605808310    0.3256940029
C    0.5154152364   -0.9460956543   -1.5097459471    0.3623111427    0.1334957998    0.2656602823
H    0.2477552718   -2.0310656178   -1.5733912158   -0.0426227229   -0.0480611207   -0.0390571168
H    0.7448407211   -0.8121055391   -2.5887008035   -0.0354447166   -0.0232895684   -0.0680226530
H   -0.4146610134   -0.4851921533   -1.2724976878    0.0162817691   -0.0001450102    0.0196956801
O   -0.2958382256    0.8432927677    1.1231055819    0.1422642907    0.0913353613   -0.0131316533
H   -0.0776739942    1.7621085981    0.9382003806    0.0502912958    0.1084188004    0.0311268056
C   -1.7378455943    0.5214982271    0.9455420910   -0.3037342092   -0.1259203009   -0.0099702246
H   -1.9822975026    0.7241586752   -0.1383123243    0.0198982831    0.0288734906    0.0405735536
H   -2.2632201394    1.3529047753    1.5380835266    0.0886583285   -0.0039625845    0.0024991125
H   -2.0531700788   -0.4696428887    1.2494291739    0.0176537098   -0.0090112030    0.0046079314
12
energy=-0.2915828994 Properties=species:S:1:pos:R:3:forces:R:3 pbc="T T T" Lattice="200.000 0.000 0.000 0.000 200.000 0.000 0.000 0.000 200.000"
O   -0.9492499708    0.1049939745   -1.2367215674    0.0664640501    0.1918382486    0.3580744785
H   -1.7913101340    0.3419898620   -0.8001870208   -0.1854655119    0.0689965869   -0.0701942068
C   -0.9076522844   -1.1984300004   -1.6773229848    0.0649779524   -0.4083873716   -0.1635977636
H   -1.9506206076   -1.4033707429   -1.7479269170    0.0242398482    0.0523718326    0.0105610641
H   -0.4489128261   -1.8010696102   -0.8884291504   -0.0156137964    0.0539546038   -0.0025484776
H   -0.2325422483   -1.2338484012   -2.6137252650   -0.0159536963    0.0317999205    0.0214558575
O    0.4473053479    0.0722946270    1.3208110428    0.2471807341    0.0532110408    0.3725209941
H   -0.0371508778    0.1717604603    0.4301390409   -0.0917056001    0.0767098970   -0.5593070246
C    1.4903553512    0.9812147308    1.6104693617   -0.1821235917   -0.1740904364    0.0362520430
H    1.4565496390    1.2645802589    2.6297186059    0.0514930295    0.0349937451    0.0263661507
H    1.4948063739    1.7900809832    1.0057232554   -0.0038067756    0.0034807597   -0.0379093763
H    2.5337444311    0.6438719201    1.4464425237    0.0403113010    0.0151211730    0.0083257469
12
energy=-0.2823102659 Properties=species:S:1:pos:R:3:forces:R:3 pbc="T T T" Lattice="200.000 0.000 0.000 0.000 200.000 0.000 0.000 0.000 200.000"
O    1.2214592878    0.3591540608   -0.7197914874    0.1789055988   -0.0020111170    0.1160878875
H    1.9002435055    0.8605542856   -0.2142714834    0.0652690013   -0.0203148018    0.0399220360
C    0.5084221255    1.1339853881   -1.7462697777   -0.2482071185    0.0440939083   -0.1978895975
H    1.0883566542    1.5985549225   -2.4619087112    0.0480786042   -0.0394165571    0.0597030767
H   -0.0111272847    1.9363654655   -1.2898749265    0.0254780916   -0.0299883211    0.0288287534
H   -0.1991126246    0.3906156681   -2.2354579244   -0.0007872718   -0.0043472215    0.0280707922
O   -0.6826707570   -1.2044733382    0.7319819088   -0.3566099781   -0.0992970399    0.3659204575
H    0.1554238543   -0.8605343955    0.3178165590    0.2193444265    0.3167136531   -0.2707855197
C   -1.1313604722   -0.3168905588    1.7244413472    0.0953128582   -0.2774873577   -0.2414240337
H   -1.2932217537    0.7009734894    1.2383255776    0.0123839764    0.0543104446   -0.0218811180
H   -0.6147513848   -0.3833819217    2.6152112808    0.0003964641    0.0196817962    0.0411787913
H   -2.1558053102   -0.5607113952    2.0967533341   -0.0395656810    0.0380626140    0.0522684743
12
energy=-0.2700969251 Properties=species:S:1:pos:R:3:forces:R:3 pbc="T T T" Lattice="200.000 0.000 0.000 0.000 200.000 0.000 0.000 0.000 200.000"
O    1.0981859256    0.5807562987    0.0056256486    0.0917770768    0.0381042659    0.0600311495
H    1.5098607950    1.0155430959    0.7910795879   -0.0908571360    0.0307025736    0.0821061287
C    1.8996169078    0.6165990050   -1.1457092112    0.1546343831    0.0058641725   -0.3366597587
H    2.9511723772    0.3394624019   -0.9219853588   -0.0614889651   -0.0043595628    0.0513459624
H    1.9654262079    1.7238644226   -1.5491196632   -0.0296792744   -0.0340059272    0.0474255440
H    1.4213292444   -0.0898803106   -1.8272913122   -0.0035866892   -0.0117304019    0.0031722273
O   -1.6028939657   -0.2682390294   -0.0621283180   -0.4336690309   -0.2913898278    0.1480667567
H   -0.7000814892    0.1529702131   -0.2385131028    0.4080109621    0.1195892160    0.2287124987
C   -1.4796033260   -0.9865764586    1.1669302536   -0.0780031619    0.2153700150   -0.3011687623
H   -1.2873518886   -2.1064999747    0.8768226827    0.0196406585   -0.0468485884    0.0208506197
H   -2.3489799655   -0.8499824309    1.8160709796   -0.0242033385   -0.0248471428    0.0378800657
H   -0.5043067359   -0.7378388449    1.6970182551    0.0474245156    0.0035506937   -0.0417639744
12
energy=-0.2610109072 Properties=species:S:1:pos:R:3:forces:R:3 pbc="T T T" Lattice="200.000 0.000 0.000 0.000 200.000 0.000 0.000 0.000 200.000"
O   -0.0747814823    0.0792093059    1.3198765568   -0.0314317385   -0.0120584747    0.1519594072
H   -0.6277863202    0.4604859055    1.9820214179   -0.0977867738    0.0709603956   -0.0190333639
C    0.9503056203   -0.7896911170    1.7576421516    0.2626063258   -0.1802127477    0.0517485972
H    0.5874858194   -1.7000584857    2.2623326619   -0.0408918562    0.0482976623   -0.0353449578
H    1.5528866967   -0.2482610559    2.5581269040   -0.0464618945    0.0195444992   -0.0420601655
H    1.5566100484   -1.1775680000    0.9032559721    0.0045868484    0.0042937426    0.0130288091
O   -0.6820488358    0.8941830163   -1.2624685526   -0.0300186601   -0.0277087808   -0.6172129001
H   -0.4209744029    0.6810065802   -0.3768468613    0.1154739080   -0.1730933625    0.3293382848
C   -0.1532198882   -0.2108185895   -1.9164881398   -0.1515171774    0.3314090515    0.2083390757
H    0.7002473698    0.0445396991   -2.5430029533    0.0402141133   -0.0202500100   -0.0460654303
H   -1.0626462588   -0.6067938475   -2.5022156608   -0.0133214007   -0.0482616668   -0.0359157427
H    0.2303206370   -0.9832876838   -1.3021621152   -0.0114501517   -0.0129197943    0.0412178721
12
energy=-0.2495394304 Properties=species:S:1:pos:R:3:forces:R:3 pbc="T T T" Lattice="200.000 0.000 0.000 0.000 200.000 0.000 0.000 0.000 200.000"
O    0.8600816382   -0.5107278052   -1.1415541854    0.1150116236   -0.2115066751   -0.3510851912
H    0.3279265483   -0.0843833300   -0.4840065224   -0.2683625119    0.0504064812    0.3001140957
C    0.0647023858   -1.5290523697   -1.7527954973    0.1873557871    0.2231002943    0.1173045336
H   -0.8598899001   -1.6895548077   -1.2061726314   -0.0182872297    0.0084774420    0.0406388596
H    0.6739759744   -2.4907795721   -1.8730621902   -0.0122759901   -0.0465405702   -0.0174557349
H   -0.2756678793   -1.4531156988   -2.7687306363   -0.0203631386   -0.0302989103   -0.0400032828
O   -0.7141696726    0.5029635271    1.0717990056   -0.0926378822   -0.0897952704   -0.1132684155
H   -1.6614367282    0.6070967143    0.9938877181   -0.0566851156   -0.0225254365   -0.0192225971
C   -0.1175186322    1.5150272325    1.7886999207    0.1990147123    0.2235697778    0.1732527710
H   -0.4431453604    1.4764872187    2.8567590458   -0.0169713390   -0.0484838101   -0.0617147080
H   -0.4290297731    2.4912656622    1.5776334517   -0.0145863835   -0.0465559968   -0.0272284987
H    0.9803446674    1.4333644351    1.5831820115   -0.0012130466   -0.0098473258   -0.0013323458
12
energy=-0.2405985853 Properties=species:S:1:pos:R:3:forces:R:3 pbc="T T T" Lattice="200.000 0.000 0.000 0.000 200.000 0.000 0.000 0.000 200.000"
O    0.6489335378    1.0754373968    0.7518029638    0.1857215938    0.2383011715    0.1202505038
H    0.0176828915    0.8547193119    0.0231876845   -0.0547758143   -0.3557985379   -0.1454755988
C    1.8847807171    1.2460088781    0.2173279444   -0.1714694537   -0.0666373425    0.0959762028
H    2.0665217619    2.1920775148   -0.3920614154    0.0191439213    0.0246810495   -0.0138376782
H    2.2638169220    0.3845596217   -0.4080660409   -0.0262622781   -0.0096647775   -0.0244599346
H    2.4622636811    1.4560788359    1.1901721544    0.0521136938    0.0174418509    0.0095722178
O   -0.8954510592   -0.7695169488   -0.9642561862    0.0558937300    0.2741418381   -0.0991756838
H   -1.5566029444   -0.4688745493   -1.5142423515   -0.0449403155   -0.0538923831   -0.0890769041
C   -1.5664795989   -1.5835198848    0.0660922413   -0.0775958992   -0.1585676570    0.2617136387
H   -2.6945663746   -1.2150980551    0.1860505041    0.0195352433    0.0196704833   -0.0323655632
H   -1.0691748263   -1.3949241558    1.0750156852    0.0248574272    0.0342902912   -0.0389923250
H   -1.3695131555   -2.6430541602   -0.1647371065    0.0177786655    0.0360345277   -0.0441283611
12
energy=-0.2333799488 Properties=species:S:1:pos:R:3:forces:R:3 pbc="T T T" Lattice="200.000 0.000 0.000 0.000 200.000 0.000 0.000 0.000 200.000"
O    1.4347683368   -0.3483309907   -0.2517523399   -0.1095495716   -0.1475273393   -0.0137209501
H    1.6060682811   -1.1679639441   -0.8283829603    0.0622376704   -0.0764178196   -0.0045729644
C    1.7023020370    0.7735383114   -1.0929645578    0.0043266527    0.2473154599   -0.0969624781
H    2.6691712132    0.7191347814   -1.5541549755   -0.0280759344   -0.0501493709    0.0421619812
H    1.7479388269    1.6514513468   -0.4328143595   -0.0027865618   -0.0121294372    0.0058837129
H    0.9691853852    0.7672522664   -1.9812319400    0.0126421152   -0.0161969227    0.0130180105
O   -1.1527037246   -0.5768533357    1.0993323182   -0.4083014968    0.0450585862    0.0232535729
H   -0.3483783029   -0.5729735130    0.5795273220    0.3448924317    0.1092878333   -0.0791838126
C   -2.0544529183    0.2282706970    0.2862926662    0.1683846439   -0.1716592011    0.1772801472
H   -1.9845656436    1.3265044153    0.4355093750   -0.0142670525    0.0399477470   -0.0152301878
H   -3.1433937667    0.0477494976    0.6884379248   -0.0517779077    0.0242053954   -0.0210079713
H   -1.7973890752   -0.0219820391   -0.7494157395    0.0222739826    0.0082645546   -0.0309195747
12
energy=-0.2209678833 Properties=species:S:1:pos:R:3:forces:R:3 pbc="T T T" Lattice="200.000 0.000 0.000 0.000 200.000 0.000 0.000 0.000 200.000"
O    1.3219740696    0.1729573619    0.4027540197    0.1656464188    0.1039533081    0.1790490664
H    0.4507483569    0.4687319861    0.1111191274   -0.2799777284   -0.0931279345   -0.2542378986
C    1.9505247701    1.1409815713    1.3002687340   -0.0125598399   -0.1508435484   -0.0761056877
H    1.4505556909    1.0957937222    2.3708935045   -0.0010526097    0.0168263288    0.0229897777
H    2.0713735202    2.0760759961    0.6725710828   -0.0043251101    0.0153597714   -0.0008572059
H    2.9322441726    0.8601200970    1.5498392993    0.0246769358    0.0281679799    0.0278476204
O   -1.3529708877   -0.0715662366   -1.0323799761    0.0553214024    0.1665792151    0.0265713247
H   -1.4727141151    0.2696887821   -1.9521811123    0.0426890574    0.0298206851   -0.0200216960
C   -1.8744914771   -1.2721602480   -0.5792797253   -0.0520231910   -0.2017159135    0.1272187081
H   -2.8519060981   -1.1436675535   -0.2135015010    0.0113154259    0.0327897953   -0.0190343923
H   -1.1885477833   -1.5376135840    0.1716472998    0.0251495046    0.0024451193   -0.0155901423
H   -1.8057186717   -2.1355219480   -1.3067770430    0.0251387059    0.0497451934    0.0021694970
12
energy=-0.2301763796 Properties=species:S:1:pos:R:3:forces:R:3 pbc="T T T" Lattice="200.000 0.000 0.000 0.000 200.000 0.000 0.000 0.000 200.000"
O   -0.1098752928    1.7051972457    0.2975354282    0.0502902674    0.1618504418   -0.1930451246
H   -0.1975340589    0.8700539924    0.8313891286   -0.0620504941   -0.3435338607   -0.0200967722
C   -0.4356196419    1.4249203890   -1.0508906038   -0.0216013819    0.0695874265    0.2310943688
H    0.4520666605    1.1333712620   -1.6258387948    0.0172973549    0.0128668296   -0.0412425547
H   -0.8273356124    2.2804532138   -1.5858914569    0.0008042411    0.0130354940   -0.0369740089
H   -1.3015186308    0.6731480386   -1.1525639201   -0.0049642864   -0.0121186385    0.0163347338
O   -0.0815974556   -1.3561534050    0.8907533327   -0.0711532284    0.2069573648    0.1176464903
H    0.3237388428   -1.6449720193    1.7257580813   -0.0010438680   -0.0379751965    0.0603293975
C    0.6259035222   -1.7182233150   -0.2351437199    0.1357593992   -0.0792393484   -0.2360020909
H    0.9247064484   -2.7280299142   -0.0678646233   -0.0299060458    0.0198494321    0.0470681606
H    1.4592262994   -1.0311629305   -0.5277478753   -0.0338218362   -0.0018527371    0.0291413996
H   -0.0612581921   -1.5987340637   -1.1362047809    0.0203903922   -0.0094266933    0.0257460005
12
energy=-0.2142114594 Properties=species:S:1:pos:R:3:forces:R:3 pbc="T T T" Lattice="200.000 0.000 0.000 0.000 200.000 0.000 0.000 0.000 200.000"
O    0.1688973615    1.2579408299    1.2502872315    0.1782350550    0.1194359782    0.0617656158
H   -0.0989100965    0.5297226797    0.5993708770   -0.1252317594   -0.2724387392   -0.1554694775
C    1.5236896419    1.4753639925    1.4328217053   -0.2169918670    0.0194755937   -0.0012125323
H    2.0519504650    1.4686950981    0.5341665799    0.0251839573   -0.0119108934   -0.0218055275
H    2.0527154591    0.6906263068    1.9887417649    0.0262087991   -0.0105420380    0.0072885638
H    1.6630850664    2.4546828038    1.7886214760    0.0470259945    0.0135065201    0.0140510798
O   -0.9733297297   -0.7672863022   -0.9735306929    0.0546128063    0.2096313123    0.0937671108
H   -1.2258679096   -0.1143740415   -1.5778132567   -0.0556319917    0.0423064772   -0.0226051407
C   -0.6782850519   -1.9820683438   -1.6462501876    0.1004211263   -0.1736343227   -0.0088512804
H   -1.4222921453   -2.3238899030   -2.3345206139   -0.0099722815    0.0519244606    0.0322596338
H   -0.5988441836   -2.5981960398   -0.8061337590   -0.0064298153   -0.0016136245   -0.0064395855
H    0.2741930980   -1.8582193669   -2.0425734299   -0.0174300238    0.0138608182    0.0072520541
12
energy=-0.2205571546 Properties=species:S:1:pos:R:3:forces:R:3 pbc="T T T" Lattice="200.000 0.000 0.000 0.000 200.000 0.000 0.000 0.000 200.000"
O    1.2556713646    0.1477882759    0.6614453033    0.1706009350   -0.1328442822    0.0602244965
H    0.2893253441    0.2388113360    0.8848056928   -0.2940565762    0.0939270334   -0.1078094489
C    1.9523064997   -0.9275558657    1.1660722915   -0.0365173809    0.1106083520   -0.0654088693
H    1.2819238762   -1.7533275446    0.9691511277   -0.0201872751   -0.0055330144    0.0069435217
H    2.2677231811   -0.7427727341    2.2011141738    0.0102695010   -0.0076341201    0.0100036489
H    2.9930656483   -1.1497147179    0.5778670000    0.0354164345   -0.0214604855    0.0051987710
O   -1.7476557174    0.4980821752   -0.2618944741    0.0484791821   -0.0222642124    0.1630820003
H   -2.5411322507    1.1818849749   -0.3153444946    0.0112557763    0.0185037166    0.0527513275
C   -1.3500339504    0.2208412670   -1.5707050433    0.1193146222   -0.1050542545   -0.2349525665
H   -1.2527332867    1.0918545741   -2.1686509364   -0.0001491240    0.0002637952    0.0413356286
H   -2.0632666273   -0.4974814526   -2.0693405470   -0.0360432695    0.0217705605    0.0398073648
H   -0.3416505939   -0.2008359158   -1.6006253996   -0.0083823111    0.0497163971    0.0288236112
12
energy=-0.1997164711 Properties=species:S:1:pos:R:3:forces:R:3 pbc="T T T" Lattice="200.000 0.000 0.000 0.000 200.000 0.000 0.000 0.000 200.000"
O   -1.0552381574    0.9729997812   -0.6298533231    0.1907732976   -0.0127285043    0.1316754586
H   -0.4397191916    1.6114823440   -1.0695150720    0.0105723770    0.0735952624   -0.0111539606
C   -1.8057196053    0.2149120176   -1.5750652669   -0.1217098620   -0.1449876034   -0.1020455494
H   -1.4110771720   -0.7955630755   -1.5304282179   -0.0021982934    0.0102802996    0.0036669076
H   -1.7026783250    0.6222463756   -2.7006066905    0.0216116663    0.0158966178    0.0404007754
H   -2.9364145701    0.2786484665   -1.4909380071    0.0246383692    0.0089063020    0.0185222285
O    0.8816877118   -0.3776688572    1.4824502819    0.2186353162   -0.1000025507    0.0194709657
H    0.2620792122    0.0151960021    0.9119926868   -0.2291449583    0.0985740456   -0.1633349969
C    1.9710537376   -0.8919961556    0.7684374313   -0.2040921272    0.0654484643    0.1163506542
H    2.7739552819   -0.0411492318    0.5821708223    0.0425080517    0.0138891003   -0.0152163039
H    1.7915644680   -1.4887425242   -0.1302474631    0.0098159584   -0.0112079537   -0.0286904281
H    2.4471787607   -1.5844882259    1.5048791860    0.0385902044   -0.0176634800   -0.0096457513
12
energy=-0.2014527480 Properties=species:S:1:pos:R:3:forces:R:3 pbc="T T T" Lattice="200.000 0.000 0.000 0.000 200.000 0.000 0.000 0.000 200.000"
O    0.7640090623    1.1154099284   -0.9352567385    0.3055915743    0.4345514335   -0.0555995958
H    0.5686387831    0.2287509247   -0.4470320443   -0.3543216961   -0.1691575175    0.0802482494
C    0.7234897577    2.0873783029    0.0808404940    0.0279648627   -0.2298227011   -0.2562305037
H    1.6774128310    2.3404867728    0.4832107328    0.0339406211    0.0478698307    0.0321038249
H   -0.0109922135    1.8512705615    0.7620952352   -0.0572008789   -0.0437678924    0.0155598033
H    0.4421932157    2.9513600946   -0.5249357945   -0.0126724542    0.0476307180    0.0274069333
O   -0.6385092972   -0.9029006693    0.4750045498    0.1135090708    0.1155690388    0.1462695555
H   -0.2962401186   -0.8613203420    1.4547963614   -0.0405812669   -0.0266885670    0.1237374342
C   -0.8526564011   -2.2700378141    0.3227138041   -0.0338814858   -0.3119051757   -0.1330828806
H    0.1510968335   -2.7228880459    0.2236667240   -0.0202443536    0.0324473243    0.0091736968
H   -1.4958158275   -2.2963223429   -0.6111464660    0.0140382243    0.0193341830    0.0167178282
H   -1.4893761209   -2.6882283446    1.1568278653    0.0238577822    0.0839382969   -0.0063043454
12
energy=-0.1935100981 Properties=species:S:1:pos:R:3:forces:R:3 pbc="T T T" Lattice="200.000 0.000 0.000 0.000 200.000 0.000 0.000 0.000 200.000"
O   -0.5755001805    1.1288463534    0.7023320575   -0.1067568392    0.1422581200    0.1352976290
H    0.0040858094    0.5471263297    0.2184509752   -0.1231409382   -0.1132097944   -0.3641623371
C   -1.6349352599    1.5723863568   -0.0068117122    0.1544898871   -0.0518180170    0.0732944433
H   -2.4863071980    0.9256278766   -0.0086641302   -0.0151170593   -0.0104901017   -0.0030678405
H   -1.3906104706    1.8518413513   -1.0814902737    0.0128997397   -0.0223999666   -0.0005836405
H   -2.0564233401    2.5472996520    0.4686886671   -0.0321588465    0.0278918434    0.0013760545
O    0.7883558122   -1.0690975759   -0.8978786426   -0.0082614693    0.0850582695   -0.0420977036
H    0.4715431581   -1.8267280104   -1.3822989057   -0.0794342381    0.0435133531   -0.0330150239
C    1.4268218342   -1.5755812570    0.2801063798    0.1185571751   -0.1193454754    0.1806148683
H    2.2528129269   -2.2495393577   -0.0942842377   -0.0150959762    0.0396021907   -0.0226817596
H    0.7675907788   -2.1315431375    0.9228031284   -0.0085077810    0.0429297127   -0.0194853639
H    1.5382324517   -0.5745000576    0.8043857061    0.1025258315   -0.0639906487    0.0945117023
12
energy=-0.1935169554 Properties=species:S:1:pos:R:3:forces:R:3 pbc="T T T" Lattice="200.000 0.000 0.000 0.000 200.000 0.000 0.000 0.000 200.000"
O   -0.8741883025    0.0178444313    1.1504023854   -0.0577001872   -0.1321804233   -0.0160714528
H   -1.0612475004    0.8926678544    1.1553751398    0.1171070728    0.1010479613   -0.0162766269
C   -2.0285393638   -0.7799653605    0.9051724385   -0.1004200979   -0.1093279425    0.0262432519
H   -2.2106743186   -1.7135241932    1.5299905048    0.0065126048    0.0066216196   -0.0063341702
H   -1.7754126393   -1.1688041119   -0.1403063313   -0.0212532545   -0.0019175289   -0.0140731913
H   -2.9462993856   -0.2273923910    0.8783250445    0.0322061548    0.0116506977   -0.0057890963
O    1.5356536169    0.5040662563   -0.3235852589    0.2222682853    0.0245828334   -0.2904225787
H    0.8710133306   -0.1072733084    0.0631188512   -0.2223361624    0.0632059479    0.2181406359
C    1.4080796361    0.2457663042   -1.7748448385    0.0663298385    0.0704909122    0.1772971165
H    0.4249931233    0.3895843442   -2.0395623486   -0.0358488940   -0.0110459742   -0.0106803633
H    1.5391430611   -0.8849850738   -1.8682569800   -0.0067368050   -0.0151545974   -0.0110408320
H    2.0515127231    0.9002279879   -2.3408825979   -0.0001280409   -0.0079735057   -0.0509921786
12
energy=-0.1876524119 Properties=species:S:1:pos:R:3:forces:R:3 pbc="T T T" Lattice="200.000 0.000 0.000 0.000 200.000 0.000 0.000 0.000 200.000"
O   -1.0466585626   -1.0050107925    0.2880689109   -0.0773593577   -0.0978968170    0.0285515885
H   -0.6825582210   -0.4826979213   -0.4428345362    0.1372151579    0.2325485849    0.0116769230
C   -2.3901762139   -0.5419874574    0.6088680201    0.0405370439   -0.0210989883    0.0205837392
H   -2.9371396864   -0.8411469563   -0.2178330414    0.0032262205    0.0029557404   -0.0020260294
H   -2.4006932451    0.5190993496    0.7047252173    0.0154980968    0.0012305301   -0.0180404038
H   -2.7206757228   -0.9588333448    1.5268098617   -0.0193496096   -0.0047246595    0.0069589483
O    1.2927735139    0.7716439959   -0.9896408720   -0.2222384605   -0.0701186164   -0.1085278152
H    1.4420911562   -0.1172318290   -1.4748240529    0.1187788042   -0.0325198294   -0.0434315920
C    2.1100909612    0.8113114028    0.2098877447    0.0563488153    0.0340763754    0.2027109305
H    2.4693764277    1.7568401030    0.1232998124   -0.0005769556   -0.0014429032   -0.0398253625
H    2.8516759922    0.0185108319    0.1860189123   -0.0329610308   -0.0034252239   -0.0229249859
H    1.4084989469    0.6007462462    0.9753546262   -0.0191192387   -0.0395847072   -0.0357054265
12
energy=-0.1836273309 Properties=species:S:1:pos:R:3:forces:R:3 pbc="T T T" Lattice="200.000 0.000 0.000 0.000 200.000 0.000 0.000 0.000 200.000"
O    1.2248230469    0.6030370188   -0.5780670826   -0.0697581477   -0.1690078793    0.1327434950
H    1.9391397850    0.3342303469   -0.0018350720    0.0453254668   -0.0240022782    0.0045523956
C    1.4190465426    1.8771833981   -1.1667815877   -0.0617332199    0.1624510515   -0.0874941329
H    2.3986667488    2.2226905215   -1.2388619458   -0.0081683954   -0.0482051025    0.0197872114
H    1.1144190067    2.7091301346   -0.4228540987    0.0043652193   -0.0319295041   -0.0030107620
H    0.9329248188    2.0167645118   -2.1088636309    0.0031208052   -0.0126277170    0.0065835672
O   -1.1964058346   -1.5997769477    0.2636988128   -0.0602157547   -0.0463292255    0.1250008743
H   -0.5171698709   -1.0298142382   -0.0836253097    0.1113760835    0.1964744622   -0.0929921803
C   -1.5246812089   -0.9142522801    1.4613274915    0.0269179094   -0.0636522915   -0.1317392220
H   -1.9862383615    0.0246643634    1.2818178112    0.0221253728    0.0121824019    0.0068381065
H   -0.7016075358   -0.5641401844    2.0443811425    0.0016727598    0.0312126805   -0.0041050236
H   -2.3724843135   -1.3651621539    2.0104420849   -0.0150280991   -0.0065665980    0.0238351565
12
energy=-0.1672484167 Properties=species:S:1:pos:R:3:forces:R:3 pbc="T T T" Lattice="200.000 0.000 0.000 0.000 200.000 0.000 0.000 0.000 200.000"
O    0.4621129328   -1.7773878125    0.6471789131   -0.1284939754    0.0843003083    0.0678858703
H    0.2243331655   -2.7458006001    0.4463695833   -0.0327239750   -0.0062709211    0.0206742421
C    1.0900757008   -1.3962231670   -0.5815483963    0.2293110516    0.0540821306   -0.1617835931
H    1.7520302814   -2.1960169381   -0.9813391920   -0.0391501907   -0.0413150598    0.0279118980
H    1.6912924089   -0.5134410380   -0.3423942753   -0.0597406148   -0.0072391986   -0.0213674115
H    0.3291741103   -1.1467129359   -1.2960775725    0.0166422378   -0.0028621523   -0.0069512350
O   -0.2999911439    1.3362533182    0.3880462747   -0.0674302707    0.1388992306   -0.0977914018
H   -0.4908368488    0.4190279690    0.5886208665    0.0374589190   -0.2119278218    0.1265466217
C   -1.2281783100    1.9746635867   -0.4982903351    0.0642894109   -0.0210804764    0.0724778608
H   -1.4727510366    2.9596546002    0.0248143682   -0.0155644313    0.0171101786   -0.0120111664
H   -2.1016628971    1.2447849638   -0.5525147144   -0.0041955265   -0.0152651548    0.0055268438
H   -0.8595382533    2.0885273386   -1.4536875959   -0.0004031490    0.0115689366   -0.0211190429
12
energy=-0.1730418024 Properties=species:S:1:pos:R:3:forces:R:3 pbc="T T T" Lattice="200.000 0.000 0.000 0.000 200.000 0.000 0.000 0.000 200.000"
O    0.6737583000    0.1336422884   -1.0632113670    0.1381916630   -0.0292946374   -0.3834677237
H    0.0441893823    0.7550770785   -0.6014713463   -0.1414317674   -0.1389300839    0.2790351620
C    0.5682101760    0.1563596664   -2.4766183810    0.0949158798   -0.0105878036    0.0763129186
H    0.7997247687    1.1382690876   -2.8008854639   -0.0048408734    0.0012485278   -0.0167245131
H   -0.4530920679   -0.0831661634   -2.7108382182   -0.0193444674    0.0095969004   -0.0000971877
H    1.2546596670   -0.6356450241   -2.9652231406    0.0099769094   -0.0024734014   -0.0456663951
O   -0.9566993558   -0.1856735255    1.1630363911   -0.2137245088    0.1045328348    0.2088270712
H   -0.8185333530   -1.1147440283    0.7719315371    0.1268741802    0.0441602427   -0.1316816293
C   -0.2299024906   -0.0989460813    2.3583572223    0.0089304704   -0.0029171739    0.0418591052
H    0.1418248911    1.0291073661    2.3616541143    0.0074402589    0.0014413605    0.0130776601
H    0.4689648100   -0.8962112379    2.5332557998   -0.0020280863    0.0137410048   -0.0422478561
H   -0.9775038721   -0.0508638412    3.2361179699   -0.0049596584    0.0094822292    0.0007723594
12
energy=-0.1596659640 Properties=species:S:1:pos:R:3:forces:R:3 pbc="T T T" Lattice="200.000 0.000 0.000 0.000 200.000 0.000 0.000 0.000 200.000"
O    1.6322563782    0.8681029984    0.1043677113    0.1198021034    0.0598629994    0.0393923887
H    0.9018771006    0.6306522338   -0.5029382836   -0.1714601977   -0.1642544234    0.0884192158
C    1.9089826754   -0.0992450804    1.1161785820   -0.0362407302    0.0471596919   -0.0970462960
H    1.1820640395    0.0493225291    1.7882163507   -0.0126323450   -0.0128483177   -0.0131249684
H    2.9032898392    0.1395635333    1.6258768803    0.0257429152    0.0075096787    0.0194946198
H    2.0060664655   -1.0707100747    0.7077857205   -0.0309895087    0.0053072715    0.0033666027
O   -1.1411586378   -0.6726956771   -0.7385032569    0.1954470493    0.0329708009   -0.0600311495
H   -1.2081967376   -0.7204718446   -1.7642910218   -0.0316266281   -0.0460726294   -0.0443145089
C   -2.3733194178   -0.0930806424   -0.3918498071   -0.1258477958    0.0995140410    0.0847620784
H   -3.2345048016   -0.7861341609   -0.4548235398    0.0449598559   -0.0131337101   -0.0095475352
H   -2.5670980394    0.9550644316   -0.6967344754    0.0198720578   -0.0158117714   -0.0007517906
H   -2.2463460756   -0.0075071141    0.7323095876    0.0029727097   -0.0002031172   -0.0106181426
12
energy=-0.1540946776 Properties=species:S:1:pos:R:3:forces:R:3 pbc="T T T" Lattice="200.000 0.000 0.000 0.000 200.000 0.000 0.000 0.000 200.000"
O   -0.7962389805   -0.5815658877    0.7446850162    0.0464783495   -0.0246424830   -0.2090687549
H   -1.1301312191   -1.3142285406    0.1526179553   -0.1456221517   -0.1320960912    0.0508908771
C   -1.3136905030   -1.0791989597    1.9772728581   -0.0286806579   -0.0607181483    0.2290107467
H   -0.8862281409   -2.1251402370    2.1539428329    0.0068813010    0.0362643843   -0.0392293807
H   -2.3994375286   -1.0367337754    1.9537560711    0.0380204479    0.0257418868   -0.0524181125
H   -0.8854340689   -0.6374845448    2.8421411487    0.0055134740    0.0066139063   -0.0240007356
O    0.5401853980    0.5529543395   -1.6325423922    0.1672497588    0.0692171876   -0.1882515595